 +-------------------------------------------------+
 |                                                 |
 |      CCC   AA    SSS  TTTTT  EEEEE  PPPP        |
 |     C     A  A  S       T    E      P   P       |
 |     C     AAAA   SS     T    EEE    PPPP        |
 |     C     A  A     S    T    E      P           |
 |      CCC  A  A  SSS     T    EEEEE  P           |
 |                                                 |
 +-------------------------------------------------+
 |                                                 |
 | Welcome to Academic Release CASTEP version 20.11|          
 | Ab Initio Total Energy Program                  |
 |                                                 |
 | Authors:                                        |
 | M. Segall, M. Probert, C. Pickard, P. Hasnip,   |
 | S. Clark, K. Refson, J. R. Yates, M. Payne      |
 |                                                 |
 | Contributors:                                   |
 | P. Lindan, P. Haynes, J. White, V. Milman,      |
 | N. Govind, M. Gibson, P. Tulip, V. Cocula,      |
 | B. Montanari, D. Quigley, M. Glover,            |
 | L. Bernasconi, A. Perlov, M. Plummer,           |
 | E. McNellis, J. Meyer, J. Gale, D. Jochym       |
 | J. Aarons, B. Walker, R. Gillen, D. Jones       |
 | T. Green, I. J. Bush, C. J. Armstrong,          |
 | E. J. Higgins, E. L. Brown, M. S. McFly,        |
 | J. Wilkins, B-C. Shih, P. J. P. Byrne,          |
 | R. J. Maurer, J. C. Womack, J. Dziedzic,        |
 | J. R. Kermode, A. Bartok-Partay                 |
 |                                                 |
 | Copyright (c) 2000 - 2020                       |
 |                                                 |
 |     Distributed under license from Cambridge    |
 |     Enterprise for academic use only.           |
 |                                                 |
 | Please cite                                     |
 |                                                 |
 |     "First principles methods using CASTEP"     |
 |                                                 |
 |         Zeitschrift fuer Kristallographie       |
 |           220(5-6) pp. 567-570 (2005)           |
 |                                                 |
 | S. J. Clark, M. D. Segall, C. J. Pickard,       |
 | P. J. Hasnip, M. J. Probert, K. Refson,         |
 | M. C. Payne                                     |
 |                                                 |
 |       in all publications arising from          |
 |              your use of CASTEP                 |
 |                                                 |
 +-------------------------------------------------+
 |                                                 |
 |              http://www.castep.org              |
 |                                                 |
 +-------------------------------------------------+
 
 
 
 Compiled for linux_x86_64_ifort on Wed, 11 Aug 2021 06:51:56 -0700
 from code version e772bf432+  HEAD  Sat Apr 3 17:41:32 2021 +0100
 Compiler: Intel Fortran 2021.1; Optimisation: fast
 MATHLIBS: Intel MKL(2021.1-Product) (LAPACK version 3.9.0)
 FFT Lib : default
 Fundamental constants values: CODATA 2014
 
 Run started: Tue, 11 Jul 2023 04:08:33 -0700
 Warning - deprecated keyword PHONON_SUM_RULE found in input file
         - preferred usage is PHONON_SUM_RULE_METHOD
 +-------------------------------------------------+
 |                                                 |
 |  D D D D    F F F F F  P P P P     T T T T T    |
 |  D       D  F          P       P       T        |
 |  D       D  F F F F    P P P P         T        |
 |  D       D  F          P               T        |
 |  D D D D    F          P               T        |
 |                                                 |
 +-------------------------------------------------+
 |                                                 |
 | Welcome to Castep Linear Response (DFPT)        |
 |                                                 |
 | Copyright (c) 2006 - 2020                       |
 |                                                 |
 | Please cite the following publications in all   |
 | work arising from your use of CASTEP LR.        |
 |                                                 |
 | K. Refson, S. J. Clark and P. R. Tulip          |
 | Variational density functional perturbation     |
 | theory for dielectrics and lattice dynamics     |
 | Phys. Rev. B 73(15), 155114 (2006)              |
 +-------------------------------------------------+
 
 
 Atomic calculation performed for H: 1s1
 
 Converged in 41 iterations to an ae energy of -12.488 eV
 
   ============================================================                
   | Pseudopotential Report - Date of generation 11-07-2023   |                
   ------------------------------------------------------------                
   | Element: H Ionic charge:  1.00 Level of theory: PBE      |                
   | Atomic Solver: Koelling-Harmon                           |                
   |                                                          |                
   |               Reference Electronic Structure             |                
   |         Orbital         Occupation         Energy        |                
   |            1s              1.000           -0.239        |                
   |                                                          |                
   |                 Pseudopotential Definition               |                
   |        Beta     l      e      Rc     scheme   norm       |                
   |          1      0   -0.239   0.803     qc      1         |                
   |         loc     1    0.000   0.803     pn      0         |                
   |                                                          |                
   | No charge augmentation                                   |                
   | No partial core correction                               |                
   ------------------------------------------------------------                
   | "1|0.8|14|16|19|10N(qc=8)"                               |                
   ------------------------------------------------------------                
   |      Author: Chris J. Pickard, Cambridge University      |                
   ============================================================                
 
 Atomic calculation performed for C: 1s2 2s2 2p2
 
 Converged in 54 iterations to an ae energy of -1027.632 eV
 
   ============================================================                
   | Pseudopotential Report - Date of generation 11-07-2023   |                
   ------------------------------------------------------------                
   | Element: C Ionic charge:  4.00 Level of theory: PBE      |                
   | Atomic Solver: Koelling-Harmon                           |                
   |                                                          |                
   |               Reference Electronic Structure             |                
   |         Orbital         Occupation         Energy        |                
   |            2s              2.000           -0.505        |                
   |            2p              2.000           -0.194        |                
   |                                                          |                
   |                 Pseudopotential Definition               |                
   |        Beta     l      e      Rc     scheme   norm       |                
   |          1      0   -0.505   1.201     qc      1         |                
   |         loc     1   -0.194   1.201     qc      1         |                
   |                                                          |                
   | No charge augmentation                                   |                
   | Partial core correction Rc = 0.839                       |                
   ------------------------------------------------------------                
   | "1|1.2|17|20|23|20N:21L(qc=8)"                           |                
   ------------------------------------------------------------                
   |      Author: Chris J. Pickard, Cambridge University      |                
   ============================================================                
 
 Atomic calculation performed for O: 1s2 2s2 2p4
 
 Converged in 61 iterations to an ae energy of -2040.902 eV
 
   ============================================================                
   | Pseudopotential Report - Date of generation 11-07-2023   |                
   ------------------------------------------------------------                
   | Element: O Ionic charge:  6.00 Level of theory: PBE      |                
   | Atomic Solver: Koelling-Harmon                           |                
   |                                                          |                
   |               Reference Electronic Structure             |                
   |         Orbital         Occupation         Energy        |                
   |            2s              2.000           -0.881        |                
   |            2p              4.000           -0.332        |                
   |                                                          |                
   |                 Pseudopotential Definition               |                
   |        Beta     l      e      Rc     scheme   norm       |                
   |          1      0   -0.881   1.196     qc      1         |                
   |          2      0    0.250   1.196     qc      1         |                
   |          3      1   -0.332   1.196     qc      1         |                
   |          4      1    0.250   1.196     qc      1         |                
   |         loc     2    0.000   1.196     pn      0         |                
   |                                                          |                
   | No charge augmentation                                   |                
   | Partial core correction Rc = 0.842                       |                
   ------------------------------------------------------------                
   | "2|1.2|23|26|31|20NN:21NN(qc=9)"                         |                
   ------------------------------------------------------------                
   |      Author: Chris J. Pickard, Cambridge University      |                
   ============================================================                
 
 Atomic calculation performed for Na: 1s2 2s2 2p6 3s1
 
 Converged in 65 iterations to an ae energy of -4418.769 eV
 
   ============================================================                
   | Pseudopotential Report - Date of generation 11-07-2023   |                
   ------------------------------------------------------------                
   | Element: Na Ionic charge:  9.00 Level of theory: PBE     |                
   | Atomic Solver: Koelling-Harmon                           |                
   |                                                          |                
   |               Reference Electronic Structure             |                
   |         Orbital         Occupation         Energy        |                
   |            2s              2.000           -2.086        |                
   |            2p              6.000           -1.054        |                
   |            3s              1.000           -0.101        |                
   |                                                          |                
   |                 Pseudopotential Definition               |                
   |        Beta     l      e      Rc     scheme   norm       |                
   |          1      0   -2.086   1.495     qc      1         |                
   |          2      0   -0.101   1.495     qc      1         |                
   |          3      1   -1.054   1.495     qc      1         |                
   |         loc     2    0.000   1.495     pn      0         |                
   |                                                          |                
   | No charge augmentation                                   |                
   | Partial core correction Rc = 1.053                       |                
   ------------------------------------------------------------                
   | "2|1.5|20|23|26|20N:30N:21N(qc=8)"                       |                
   ------------------------------------------------------------                
   |      Author: Chris J. Pickard, Cambridge University      |                
   ============================================================                
 
 Atomic calculation performed for Ti: 1s2 2s2 2p6 3s2 3p6 3d2 4s2
 
 Converged in 79 iterations to an ae energy of -23226.658 eV
 
   ============================================================                
   | Pseudopotential Report - Date of generation 11-07-2023   |                
   ------------------------------------------------------------                
   | Element: Ti Ionic charge: 12.00 Level of theory: PBE     |                
   | Atomic Solver: Koelling-Harmon                           |                
   |                                                          |                
   |               Reference Electronic Structure             |                
   |         Orbital         Occupation         Energy        |                
   |            3s              2.000           -2.302        |                
   |            3p              6.000           -1.428        |                
   |            4s              2.000           -0.164        |                
   |            3d              2.000           -0.157        |                
   |                                                          |                
   |                 Pseudopotential Definition               |                
   |        Beta     l      e      Rc     scheme   norm       |                
   |          1      0   -2.302   1.793     qc      1         |                
   |          2      0   -0.164   1.793     qc      1         |                
   |          3      1   -1.428   1.793     qc      1         |                
   |          4      2   -0.157   1.793     qc      1         |                
   |         loc     3    0.000   1.793     pn      0         |                
   |                                                          |                
   | No charge augmentation                                   |                
   | Partial core correction Rc = 1.263                       |                
   ------------------------------------------------------------                
   | "3|1.8|15|17|19|30N:40N:31N:32N(qc=7)"                   |                
   ------------------------------------------------------------                
   |      Author: Chris J. Pickard, Cambridge University      |                
   ============================================================                
 
 Pseudo atomic calculation performed for H 1s1
 
 Converged in 20 iterations to a total energy of -12.4801 eV
 
 Pseudo atomic calculation performed for C 2s2 2p2
 
 Converged in 27 iterations to a total energy of -152.4324 eV
 
 Pseudo atomic calculation performed for O 2s2 2p4
 
 Converged in 38 iterations to a total energy of -429.1989 eV
 
 Pseudo atomic calculation performed for Na 2s2 2p6 3s1
 
 Converged in 24 iterations to a total energy of -1230.2427 eV
 
 Pseudo atomic calculation performed for Ti 3s2 3p6 3d2 4s2
 
 Converged in 45 iterations to a total energy of -1577.3344 eV
 Calculation parallelised over 40 processes.
 Data is distributed by G-vector(40-way)

 ************************************ Title ************************************
 phonon calc with some thermo stuff at 298 K

 ***************************** General Parameters ******************************
  
 output verbosity                               : normal  (1)
 write checkpoint data to                       : Na4TiO5CO3_w_water_thermo.check
 type of calculation                            : Thermodynamics calculation
 stress calculation                             : off
 density difference calculation                 : off
 electron localisation func (ELF) calculation   : off
 Hirshfeld analysis                             : off
 molecular orbital projected DOS                : off
 deltaSCF calculation                           : off
 unlimited duration calculation
 timing information                             : on
 memory usage estimate                          : on
 write extra output files                       : on
 write final potential to formatted file        : off
 write final density to formatted file          : off
 write BibTeX reference list                    : on
 write OTFG pseudopotential files               : on
 write electrostatic potential file             : on
 write bands file                               : on
 checkpoint writing                             : both castep_bin and check files
  
 output         length unit                     : A
 output           mass unit                     : amu
 output           time unit                     : ps
 output         charge unit                     : e
 output           spin unit                     : hbar/2
 output         energy unit                     : eV
 output          force unit                     : eV/A
 output       velocity unit                     : A/ps
 output       pressure unit                     : GPa
 output     inv_length unit                     : 1/A
 output      frequency unit                     : cm-1
 output force constant unit                     : eV/A**2
 output         volume unit                     : A**3
 output   IR intensity unit                     : (D/A)**2/amu
 output         dipole unit                     : D
 output         efield unit                     : eV/A/e
 output        entropy unit                     : J/mol/K
 output    efield chi2 unit                     : pm/V
  
 wavefunctions paging                           : none
 random number generator seed                   : randomised (40833381)
 data distribution                              : optimal for this architecture
 optimization strategy                          : maximize speed(+++)

 *********************** Exchange-Correlation Parameters ***********************
  
 using functional                               : Perdew Burke Ernzerhof
 relativistic treatment                         : Koelling-Harmon
 DFT+D: Semi-empirical dispersion correction    : off

 ************************* Pseudopotential Parameters **************************
  
 pseudopotential representation                 : reciprocal space
 <beta|phi> representation                      : reciprocal space
 spin-orbit coupling                            : off

 **************************** Basis Set Parameters *****************************
  
 plane wave basis set cut-off                   :   850.0000   eV
 size of standard grid                          :     1.7500
 size of   fine   gmax                          :    26.1388   1/A
 finite basis set correction                    : none

 **************************** Electronic Parameters ****************************
  
 number of  electrons                           :  496.0    
 net charge of system                           :  0.000    
 treating system as non-spin-polarized
 number of bands                                :        248
 electron temperature                           :     0.0000   K

 ********************* Electronic Minimization Parameters **********************
  
 Method: Treating system as non-metallic,
         and number of  SD  steps               :          1
         and number of  CG  steps               :          4
  
 total energy / atom convergence tol.           : 0.1000E-08   eV
 max force / atom convergence tol.              : ignored
 convergence tolerance window                   :          3   cycles
 max. number of SCF cycles                      :        200
 periodic dipole correction                     : NONE

 *********************** Population Analysis Parameters ************************
  
 Population analysis with cutoff                :  3.000       A
 Population analysis output                     : summary and pdos components

 ****************************** Phonon Parameters ******************************
  
 phonon calculation method                      : finite displacement
 finite displacement amplitude                  : 0.5292E-02   A
 fine phonon calculation method                 : supercell
 non-periodic force constant method             : Weighted cumulant sum
 LO/TO splitting term                           : included
 acoustic phonon sum rule                       : correct D(q) in recip-space
 Born effective charges                         : calculated
 Born charge sum rule                           : explicitly enforced
 Raman intensities                              : not calculated
 phonon k-points                                : use reduced set
 phonon DOS                                     : not calculated
 no timed backups

 ************************** Thermodynamics Parameters **************************
 Helmholtz free energy                          : calculated
 Initial temperature                            :  10.00       K
 Final temperature                              :  1000.       K
 Spacing between temperature values             :  5.000       K
 Number of temperature values                   :        199
 band convergence tolerance                     : 0.1000E-08   eV

 *******************************************************************************
  
 
                           -------------------------------
                                      Unit Cell
                           -------------------------------
        Real Lattice(A)                      Reciprocal Lattice(1/A)
    13.2612856     0.5191589     1.6685658        0.460733754  -0.010791175   0.107197305
     0.1976191     6.6043437    -0.1845303       -0.043297678   0.953988616   0.047292830
    -2.9416482    -0.7565054    12.5670419       -0.061808842   0.015440835   0.486434799
 
                       Lattice parameters(A)       Cell Angles
                    a =     13.375924          alpha =   95.301825
                    b =      6.609876          beta  =   96.118987
                    c =     12.928888          gamma =   86.276635
 
                       Current cell volume =          1129.955880       A**3
                                   density =             1.181915   AMU/A**3
                                           =             1.962615     g/cm^3
 
                           -------------------------------
                                     Cell Contents
                           -------------------------------
                         Total number of ions in cell =   92
                      Total number of species in cell =    5
                        Max number of any one species =   44
 
            xxxxxxxxxxxxxxxxxxxxxxxxxxxxxxxxxxxxxxxxxxxxxxxxxxxxxxxxxxxx
            x  Element    Atom        Fractional coordinates of atoms  x
            x            Number           u          v          w      x
            x----------------------------------------------------------x
            x  H            1         0.106586   0.632303   0.081066   x 
            x  H            2        -0.022725   0.159621   0.081380   x 
            x  H            3         0.051208  -0.030552   0.078120   x 
            x  H            4         0.548877   0.623446   0.180647   x 
            x  H            5         0.092982   0.718453   0.199597   x 
            x  H            6         0.444584   1.082409   0.207649   x 
            x  H            7         0.503855   0.771668   0.267873   x 
            x  H            8         0.956923   0.095947   0.316384   x 
            x  H            9         0.398286   1.040327   0.309829   x 
            x  H           10         0.947566   0.421129   0.339778   x 
            x  H           11         1.008724   0.609022   0.332042   x 
            x  H           12         0.949876   0.147711   0.435197   x 
            x  H           13         0.068409   0.766942   0.598908   x 
            x  H           14         0.099432   0.153568   0.623016   x 
            x  H           15         0.079586   0.384468   0.657635   x 
            x  H           16         0.463236  -0.023203   0.745755   x 
            x  H           17         0.065313   0.720411   0.718526   x 
            x  H           18         0.565373   0.722925   0.763090   x 
            x  H           19         0.404113  -0.063109   0.841172   x 
            x  H           20         0.884986   0.350055   0.767820   x 
            x  H           21         0.519835   0.684084   0.866227   x 
            x  H           22         0.903718   1.038056   0.834294   x 
            x  H           23         0.974099   0.842955   0.853693   x 
            x  H           24         0.872735   0.378263   0.890113   x 
            x  C            1         0.622847  -0.026623   0.646904   x 
            x  C            2         0.808377   0.110797   0.179491   x 
            x  C            3         0.354197   0.478235   0.525394   x 
            x  C            4         0.368756   0.926640   1.031780   x 
            x  O            1         0.283533   0.475317   0.039579   x 
            x  O            2         0.635514   0.614281   0.107038   x 
            x  O            3         0.063605   0.723885   0.125679   x 
            x  O            4         0.711241   0.143629   0.179834   x 
            x  O            5         0.852450   0.229553   0.123252   x 
            x  O            6         0.044268   0.112136   0.059821   x 
            x  O            7         0.725754   0.573817   0.180299   x 
            x  O            8         0.499998   0.631758   0.236176   x 
            x  O            9         0.462837   1.074290   0.283546   x 
            x  O           10         0.301310   0.942084   0.357158   x 
            x  O           11         0.939407   0.562171   0.318808   x 
            x  O           12         0.131935   0.682268   0.329028   x 
            x  O           13         0.217726   0.531713   0.314878   x 
            x  O           14         0.989641   0.177956   0.376801   x 
            x  O           15         0.696989   0.378737   0.450162   x 
            x  O           16         0.798541  -0.037046   0.499755   x 
            x  O           17         0.161211   0.941853   0.519093   x 
            x  O           18         0.882594   0.099046   0.531057   x 
            x  O           19         0.267000   0.926544   0.568243   x 
            x  O           20         0.256867   0.491767   0.532175   x 
            x  O           21         0.388850   0.612203   0.471002   x 
            x  O           22         0.616203   0.088488   0.569034   x 
            x  O           23         0.043387   0.674407   0.644076   x 
            x  O           24         0.712856   0.429703   0.671042   x 
            x  O           25         0.819767   0.442005   0.654136   x 
            x  O           26         0.110864   0.256658   0.681705   x 
            x  O           27         0.700254  -0.028620   0.714084   x 
            x  O           28         0.411881   0.037309   0.790946   x 
            x  O           29         0.577660   0.647771   0.827282   x 
            x  O           30         0.295250   0.495413   0.820478   x 
            x  O           31         0.905169   0.887127   0.828283   x 
            x  O           32         0.114175   0.754324   0.848248   x 
            x  O           33         0.194097   0.899981   0.846598   x 
            x  O           34         0.912890   0.300533   0.836509   x 
            x  O           35         0.605282   0.266088   0.969012   x 
            x  O           36         0.693792   0.117996   0.961400   x 
            x  O           37         0.789945   0.502753   0.968713   x 
            x  O           38         0.175354   0.473537   0.997245   x 
            x  O           39         0.545694  -0.138653   0.653240   x 
            x  O           40         0.859058  -0.028099   0.227749   x 
            x  O           41         0.412750   0.346132   0.570752   x 
            x  O           42         0.284054   0.911111   1.069236   x 
            x  O           43         0.387699   0.797752   0.950368   x 
            x  O           44         0.432101   1.059108   1.068776   x 
            x  Na           1         0.602106   0.951019   0.064875   x 
            x  Na           2         0.896551   0.640302   0.138497   x 
            x  Na           3         0.204778   0.224931   0.122539   x 
            x  Na           4         0.318507   0.682872   0.203296   x 
            x  Na           5         0.609154   0.330886   0.294727   x 
            x  Na           6         0.792592   0.764725   0.341872   x 
            x  Na           7         0.168368   0.238142   0.411893   x 
            x  Na           8         0.442945   0.006673   0.506448   x 
            x  Na           9         0.564326   0.522634   0.557140   x 
            x  Na          10         0.859674   0.782864   0.642808   x 
            x  Na          11         0.292115   0.234019   0.685239   x 
            x  Na          12         0.244064   0.711905   0.690021   x 
            x  Na          13         0.680983   0.303736   0.816949   x 
            x  Na          14         0.745594   0.788242   0.866287   x 
            x  Na          15         0.089507   0.208095   0.873515   x 
            x  Na          16         0.424498   0.309146   0.933566   x 
            x  Ti           1         0.722935   0.380453   0.052428   x 
            x  Ti           2         0.247878   0.767756   0.426975   x 
            x  Ti           3         0.750070   0.240709   0.551027   x 
            x  Ti           4         0.246124   0.653436   0.918850   x 
            xxxxxxxxxxxxxxxxxxxxxxxxxxxxxxxxxxxxxxxxxxxxxxxxxxxxxxxxxxxx
 
 
                         No user defined ionic velocities
 
                           -------------------------------
                                   Details of Species
                           -------------------------------
 
                               Mass of species in AMU
                                    H    1.0079400
                                    C   12.0107000
                                    O   15.9994000
                                    Na   22.9897700
                                    Ti   47.8670000
 
                          Electric Quadrupole Moment (Barn)
                                    H    0.0028600 Isotope  2
                                    C    0.0332700 Isotope 11
                                    O   -0.0255800 Isotope 17
                                    Na    0.1040000 Isotope 23
                                    Ti    0.3020000 Isotope 47
 
                          Files used for pseudopotentials:
                                    H 1|0.8|14|16|19|10N(qc=8)
                                    C 1|1.2|17|20|23|20N:21L(qc=8)
                                    O 2|1.2|23|26|31|20NN:21NN(qc=9)
                                    Na 2|1.5|20|23|26|20N:30N:21N(qc=8)
                                    Ti 3|1.8|15|17|19|30N:40N:31N:32N(qc=7)
 
                           -------------------------------
                              k-Points For BZ Sampling
                           -------------------------------
                       MP grid size for SCF calculation is  1  1  1
                            with an offset of   0.000  0.000  0.000
                       Number of kpoints used =             1
 
                           -------------------------------
                               Symmetry and Constraints
                           -------------------------------
 
                      Maximum deviation from symmetry =  0.00000         ANG
 
                      Number of symmetry operations   =           1
                      Number of ionic constraints     =           3
                      Point group of crystal =     1: C1, 1, 1
                      Space group of crystal =     1: P1, P 1
 
             Set iprint > 1 for details on symmetry rotations/translations
 
                         Centre of mass is constrained
             Set iprint > 1 for details of linear ionic constraints
 
                         Number of cell constraints= 0
                         Cell constraints are:  1 2 3 4 5 6
 
                         External pressure/stress (GPa)
                          0.00000   0.00000   0.00000
                                    0.00000   0.00000
                                              0.00000
  
+---------------- MEMORY AND SCRATCH DISK ESTIMATES PER PROCESS --------------+
|                                                     Memory          Disk    |
| Baseline code, static data and system overhead     5085.0 MB         0.0 MB |
| BLAS internal memory storage                          0.0 MB         0.0 MB |
| Model and support data                              145.2 MB         0.0 MB |
| Electronic energy minimisation requirements          25.0 MB         0.0 MB |
| Force calculation requirements                        2.6 MB         0.0 MB |
|                                               ----------------------------- |
| Approx. total storage required per process         5255.2 MB         0.0 MB |
|                                                                             |
| Requirements will fluctuate during execution and may exceed these estimates |
+-----------------------------------------------------------------------------+
Calculating total energy with cut-off of  850.000 eV.
------------------------------------------------------------------------ <-- SCF
SCF loop      Energy                           Energy gain       Timer   <-- SCF
                                               per atom          (sec)   <-- SCF
------------------------------------------------------------------------ <-- SCF
Initial   8.46927219E+002                                         11.91  <-- SCF
      1  -2.39864108E+004                    2.69927587E+002      17.11  <-- SCF
      2  -4.33262487E+004                    2.10215629E+002      21.51  <-- SCF
      3  -4.60501958E+004                    2.96081214E+001      25.55  <-- SCF
      4  -4.62542749E+004                    2.21825088E+000      29.44  <-- SCF
      5  -4.62987958E+004                    4.83922084E-001      33.29  <-- SCF
      6  -4.63059037E+004                    7.72605151E-002      37.14  <-- SCF
      7  -4.63068341E+004                    1.01123281E-002      41.05  <-- SCF
      8  -4.63069820E+004                    1.60812467E-003      44.90  <-- SCF
      9  -4.63070089E+004                    2.92671329E-004      48.63  <-- SCF
     10  -4.63070145E+004                    6.07545832E-005      52.36  <-- SCF
     11  -4.63070157E+004                    1.30063595E-005      56.16  <-- SCF
     12  -4.63070160E+004                    3.02504638E-006      59.66  <-- SCF
     13  -4.63070161E+004                    7.01227627E-007      63.38  <-- SCF
     14  -4.63070161E+004                    1.73215868E-007      67.13  <-- SCF
     15  -4.63070161E+004                    4.20703529E-008      70.80  <-- SCF
     16  -4.63070161E+004                    1.07967162E-008      74.60  <-- SCF
     17  -4.63070161E+004                    2.70735014E-009      78.53  <-- SCF
     18  -4.63070161E+004                    7.14078141E-010      82.47  <-- SCF
     19  -4.63070161E+004                    1.83529784E-010      86.38  <-- SCF
------------------------------------------------------------------------ <-- SCF
 
Final energy =  -46307.01607516     eV
(energy not corrected for finite basis set)
 

Writing analysis data to Na4TiO5CO3_w_water_thermo.castep_bin

Writing model to Na4TiO5CO3_w_water_thermo.check

 Efield perturbation    1:  X                                            91.06s
  +---------------- MEMORY AND SCRATCH DISK ESTIMATES PER PROCESS --------------+
  |                                                     Memory          Disk    |
  | Baseline code, static data and system overhead     5085.0 MB         0.0 MB |
  | BLAS internal memory storage                          0.0 MB         0.0 MB |
  | Model and support data                              146.0 MB         0.0 MB |
  | DFPT E-field response requirements                   59.9 MB         0.0 MB |
  |                                               ----------------------------- |
  | Approx. total storage required per process         5291.0 MB         0.0 MB |
  |                                                                             |
  | Requirements will fluctuate during execution and may exceed these estimates |
  +-----------------------------------------------------------------------------+

 Efield perturbation    2:  Y                                           281.31s

 Efield perturbation    3:  Z                                           371.57s
 Perturbation    1 (of  276): H     1 X at q=( 0.000, 0.000, 0.000):    461.54s
 Perturbation    2 (of  276): H     1 Y at q=( 0.000, 0.000, 0.000):    501.36s
 Perturbation    3 (of  276): H     1 Z at q=( 0.000, 0.000, 0.000):    540.98s
 Perturbation    4 (of  276): H     2 X at q=( 0.000, 0.000, 0.000):    584.72s
 Perturbation    5 (of  276): H     2 Y at q=( 0.000, 0.000, 0.000):    624.39s
 Perturbation    6 (of  276): H     2 Z at q=( 0.000, 0.000, 0.000):    660.48s
 Perturbation    7 (of  276): H     3 X at q=( 0.000, 0.000, 0.000):    696.45s
 Perturbation    8 (of  276): H     3 Y at q=( 0.000, 0.000, 0.000):    732.26s
 Perturbation    9 (of  276): H     3 Z at q=( 0.000, 0.000, 0.000):    767.97s
 Perturbation   10 (of  276): H     4 X at q=( 0.000, 0.000, 0.000):    804.04s
 Perturbation   11 (of  276): H     4 Y at q=( 0.000, 0.000, 0.000):    847.92s
 Perturbation   12 (of  276): H     4 Z at q=( 0.000, 0.000, 0.000):    887.55s
 Perturbation   13 (of  276): H     5 X at q=( 0.000, 0.000, 0.000):    927.82s
 Perturbation   14 (of  276): H     5 Y at q=( 0.000, 0.000, 0.000):    963.58s
 Perturbation   15 (of  276): H     5 Z at q=( 0.000, 0.000, 0.000):    999.72s
 Perturbation   16 (of  276): H     6 X at q=( 0.000, 0.000, 0.000):   1042.81s
 Perturbation   17 (of  276): H     6 Y at q=( 0.000, 0.000, 0.000):   1082.52s
 Perturbation   18 (of  276): H     6 Z at q=( 0.000, 0.000, 0.000):   1118.49s
 Perturbation   19 (of  276): H     7 X at q=( 0.000, 0.000, 0.000):   1157.94s
 Perturbation   20 (of  276): H     7 Y at q=( 0.000, 0.000, 0.000):   1193.92s
 Perturbation   21 (of  276): H     7 Z at q=( 0.000, 0.000, 0.000):   1229.90s
 Perturbation   22 (of  276): H     8 X at q=( 0.000, 0.000, 0.000):   1265.84s
 Perturbation   23 (of  276): H     8 Y at q=( 0.000, 0.000, 0.000):   1301.61s
 Perturbation   24 (of  276): H     8 Z at q=( 0.000, 0.000, 0.000):   1337.60s
 Perturbation   25 (of  276): H     9 X at q=( 0.000, 0.000, 0.000):   1373.61s
 Perturbation   26 (of  276): H     9 Y at q=( 0.000, 0.000, 0.000):   1413.47s
 Perturbation   27 (of  276): H     9 Z at q=( 0.000, 0.000, 0.000):   1457.47s
 Perturbation   28 (of  276): H    10 X at q=( 0.000, 0.000, 0.000):   1497.05s
 Perturbation   29 (of  276): H    10 Y at q=( 0.000, 0.000, 0.000):   1532.45s
 Perturbation   30 (of  276): H    10 Z at q=( 0.000, 0.000, 0.000):   1568.91s
 Perturbation   31 (of  276): H    11 X at q=( 0.000, 0.000, 0.000):   1604.85s
 Perturbation   32 (of  276): H    11 Y at q=( 0.000, 0.000, 0.000):   1644.76s
 Perturbation   33 (of  276): H    11 Z at q=( 0.000, 0.000, 0.000):   1683.90s
 Perturbation   34 (of  276): H    12 X at q=( 0.000, 0.000, 0.000):   1720.12s
 Perturbation   35 (of  276): H    12 Y at q=( 0.000, 0.000, 0.000):   1763.28s
 Perturbation   36 (of  276): H    12 Z at q=( 0.000, 0.000, 0.000):   1806.24s
 Perturbation   37 (of  276): H    13 X at q=( 0.000, 0.000, 0.000):   1846.09s
 Perturbation   38 (of  276): H    13 Y at q=( 0.000, 0.000, 0.000):   1889.05s
 Perturbation   39 (of  276): H    13 Z at q=( 0.000, 0.000, 0.000):   1932.37s
 Perturbation   40 (of  276): H    14 X at q=( 0.000, 0.000, 0.000):   1967.64s
 Perturbation   41 (of  276): H    14 Y at q=( 0.000, 0.000, 0.000):   2003.81s
 Perturbation   42 (of  276): H    14 Z at q=( 0.000, 0.000, 0.000):   2043.81s
 Perturbation   43 (of  276): H    15 X at q=( 0.000, 0.000, 0.000):   2083.58s
 Perturbation   44 (of  276): H    15 Y at q=( 0.000, 0.000, 0.000):   2119.13s
 Perturbation   45 (of  276): H    15 Z at q=( 0.000, 0.000, 0.000):   2154.30s
 Perturbation   46 (of  276): H    16 X at q=( 0.000, 0.000, 0.000):   2190.45s
 Perturbation   47 (of  276): H    16 Y at q=( 0.000, 0.000, 0.000):   2225.75s
 Perturbation   48 (of  276): H    16 Z at q=( 0.000, 0.000, 0.000):   2261.40s
 Perturbation   49 (of  276): H    17 X at q=( 0.000, 0.000, 0.000):   2296.80s
 Perturbation   50 (of  276): H    17 Y at q=( 0.000, 0.000, 0.000):   2332.36s
 Perturbation   51 (of  276): H    17 Z at q=( 0.000, 0.000, 0.000):   2368.43s
 Perturbation   52 (of  276): H    18 X at q=( 0.000, 0.000, 0.000):   2411.71s
 Perturbation   53 (of  276): H    18 Y at q=( 0.000, 0.000, 0.000):   2451.17s
 Perturbation   54 (of  276): H    18 Z at q=( 0.000, 0.000, 0.000):   2487.15s
 Perturbation   55 (of  276): H    19 X at q=( 0.000, 0.000, 0.000):   2527.02s
 Perturbation   56 (of  276): H    19 Y at q=( 0.000, 0.000, 0.000):   2562.89s
 Perturbation   57 (of  276): H    19 Z at q=( 0.000, 0.000, 0.000):   2599.02s
 Perturbation   58 (of  276): H    20 X at q=( 0.000, 0.000, 0.000):   2638.17s
 Perturbation   59 (of  276): H    20 Y at q=( 0.000, 0.000, 0.000):   2677.75s
 Perturbation   60 (of  276): H    20 Z at q=( 0.000, 0.000, 0.000):   2717.35s
 Perturbation   61 (of  276): H    21 X at q=( 0.000, 0.000, 0.000):   2756.76s
 Perturbation   62 (of  276): H    21 Y at q=( 0.000, 0.000, 0.000):   2795.52s
 Perturbation   63 (of  276): H    21 Z at q=( 0.000, 0.000, 0.000):   2831.76s
 Perturbation   64 (of  276): H    22 X at q=( 0.000, 0.000, 0.000):   2867.43s
 Perturbation   65 (of  276): H    22 Y at q=( 0.000, 0.000, 0.000):   2902.68s
 Perturbation   66 (of  276): H    22 Z at q=( 0.000, 0.000, 0.000):   2938.32s
 Perturbation   67 (of  276): H    23 X at q=( 0.000, 0.000, 0.000):   2974.13s
 Perturbation   68 (of  276): H    23 Y at q=( 0.000, 0.000, 0.000):   3013.94s
 Perturbation   69 (of  276): H    23 Z at q=( 0.000, 0.000, 0.000):   3049.40s
 Perturbation   70 (of  276): H    24 X at q=( 0.000, 0.000, 0.000):   3085.96s
 Perturbation   71 (of  276): H    24 Y at q=( 0.000, 0.000, 0.000):   3125.16s
 Perturbation   72 (of  276): H    24 Z at q=( 0.000, 0.000, 0.000):   3164.95s
 Perturbation   73 (of  276): C     1 X at q=( 0.000, 0.000, 0.000):   3208.56s
 Perturbation   74 (of  276): C     1 Y at q=( 0.000, 0.000, 0.000):   3255.65s
 Perturbation   75 (of  276): C     1 Z at q=( 0.000, 0.000, 0.000):   3302.09s
 Perturbation   76 (of  276): C     2 X at q=( 0.000, 0.000, 0.000):   3349.74s
 Perturbation   77 (of  276): C     2 Y at q=( 0.000, 0.000, 0.000):   3400.09s
 Perturbation   78 (of  276): C     2 Z at q=( 0.000, 0.000, 0.000):   3451.44s
 Perturbation   79 (of  276): C     3 X at q=( 0.000, 0.000, 0.000):   3498.02s
 Perturbation   80 (of  276): C     3 Y at q=( 0.000, 0.000, 0.000):   3548.80s
 Perturbation   81 (of  276): C     3 Z at q=( 0.000, 0.000, 0.000):   3599.60s
 Perturbation   82 (of  276): C     4 X at q=( 0.000, 0.000, 0.000):   3645.96s
 Perturbation   83 (of  276): C     4 Y at q=( 0.000, 0.000, 0.000):   3695.66s
 Perturbation   84 (of  276): C     4 Z at q=( 0.000, 0.000, 0.000):   3745.91s
 Perturbation   85 (of  276): O     1 X at q=( 0.000, 0.000, 0.000):   3796.15s
 Perturbation   86 (of  276): O     1 Y at q=( 0.000, 0.000, 0.000):   3850.43s
 Perturbation   87 (of  276): O     1 Z at q=( 0.000, 0.000, 0.000):   3904.72s
 Perturbation   88 (of  276): O     2 X at q=( 0.000, 0.000, 0.000):   3959.46s
 Perturbation   89 (of  276): O     2 Y at q=( 0.000, 0.000, 0.000):   4017.46s
 Perturbation   90 (of  276): O     2 Z at q=( 0.000, 0.000, 0.000):   4079.44s
 Perturbation   91 (of  276): O     3 X at q=( 0.000, 0.000, 0.000):   4137.71s
 Perturbation   92 (of  276): O     3 Y at q=( 0.000, 0.000, 0.000):   4184.51s
 Perturbation   93 (of  276): O     3 Z at q=( 0.000, 0.000, 0.000):   4227.74s
 Perturbation   94 (of  276): O     4 X at q=( 0.000, 0.000, 0.000):   4274.91s
 Perturbation   95 (of  276): O     4 Y at q=( 0.000, 0.000, 0.000):   4325.69s
 Perturbation   96 (of  276): O     4 Z at q=( 0.000, 0.000, 0.000):   4380.34s
 Perturbation   97 (of  276): O     5 X at q=( 0.000, 0.000, 0.000):   4435.20s
 Perturbation   98 (of  276): O     5 Y at q=( 0.000, 0.000, 0.000):   4490.12s
 Perturbation   99 (of  276): O     5 Z at q=( 0.000, 0.000, 0.000):   4540.60s
 Perturbation  100 (of  276): O     6 X at q=( 0.000, 0.000, 0.000):   4591.53s
 Perturbation  101 (of  276): O     6 Y at q=( 0.000, 0.000, 0.000):   4637.64s
 Perturbation  102 (of  276): O     6 Z at q=( 0.000, 0.000, 0.000):   4680.60s
 Perturbation  103 (of  276): O     7 X at q=( 0.000, 0.000, 0.000):   4723.68s
 Perturbation  104 (of  276): O     7 Y at q=( 0.000, 0.000, 0.000):   4778.09s
 Perturbation  105 (of  276): O     7 Z at q=( 0.000, 0.000, 0.000):   4836.41s
 Perturbation  106 (of  276): O     8 X at q=( 0.000, 0.000, 0.000):   4895.10s
 Perturbation  107 (of  276): O     8 Y at q=( 0.000, 0.000, 0.000):   4949.53s
 Perturbation  108 (of  276): O     8 Z at q=( 0.000, 0.000, 0.000):   4992.26s
 Perturbation  109 (of  276): O     9 X at q=( 0.000, 0.000, 0.000):   5039.72s
 Perturbation  110 (of  276): O     9 Y at q=( 0.000, 0.000, 0.000):   5082.70s
 Perturbation  111 (of  276): O     9 Z at q=( 0.000, 0.000, 0.000):   5126.43s
 Perturbation  112 (of  276): O    10 X at q=( 0.000, 0.000, 0.000):   5169.43s
 Perturbation  113 (of  276): O    10 Y at q=( 0.000, 0.000, 0.000):   5224.40s
 Perturbation  114 (of  276): O    10 Z at q=( 0.000, 0.000, 0.000):   5282.39s
 Perturbation  115 (of  276): O    11 X at q=( 0.000, 0.000, 0.000):   5340.76s
 Perturbation  116 (of  276): O    11 Y at q=( 0.000, 0.000, 0.000):   5391.41s
 Perturbation  117 (of  276): O    11 Z at q=( 0.000, 0.000, 0.000):   5434.46s
 Perturbation  118 (of  276): O    12 X at q=( 0.000, 0.000, 0.000):   5477.76s
 Perturbation  119 (of  276): O    12 Y at q=( 0.000, 0.000, 0.000):   5539.22s
 Perturbation  120 (of  276): O    12 Z at q=( 0.000, 0.000, 0.000):   5597.39s
 Perturbation  121 (of  276): O    13 X at q=( 0.000, 0.000, 0.000):   5660.21s
 Perturbation  122 (of  276): O    13 Y at q=( 0.000, 0.000, 0.000):   5718.26s
 Perturbation  123 (of  276): O    13 Z at q=( 0.000, 0.000, 0.000):   5780.60s
 Perturbation  124 (of  276): O    14 X at q=( 0.000, 0.000, 0.000):   5839.22s
 Perturbation  125 (of  276): O    14 Y at q=( 0.000, 0.000, 0.000):   5893.75s
 Perturbation  126 (of  276): O    14 Z at q=( 0.000, 0.000, 0.000):   5936.97s
 Perturbation  127 (of  276): O    15 X at q=( 0.000, 0.000, 0.000):   5983.52s
 Perturbation  128 (of  276): O    15 Y at q=( 0.000, 0.000, 0.000):   6038.30s
 Perturbation  129 (of  276): O    15 Z at q=( 0.000, 0.000, 0.000):   6093.26s
 Perturbation  130 (of  276): O    16 X at q=( 0.000, 0.000, 0.000):   6147.54s
 Perturbation  131 (of  276): O    16 Y at q=( 0.000, 0.000, 0.000):   6201.99s
 Perturbation  132 (of  276): O    16 Z at q=( 0.000, 0.000, 0.000):   6259.62s
 Perturbation  133 (of  276): O    17 X at q=( 0.000, 0.000, 0.000):   6317.79s
 Perturbation  134 (of  276): O    17 Y at q=( 0.000, 0.000, 0.000):   6379.79s
 Perturbation  135 (of  276): O    17 Z at q=( 0.000, 0.000, 0.000):   6437.71s
 Perturbation  136 (of  276): O    18 X at q=( 0.000, 0.000, 0.000):   6495.91s
 Perturbation  137 (of  276): O    18 Y at q=( 0.000, 0.000, 0.000):   6554.45s
 Perturbation  138 (of  276): O    18 Z at q=( 0.000, 0.000, 0.000):   6608.91s
 Perturbation  139 (of  276): O    19 X at q=( 0.000, 0.000, 0.000):   6663.18s
 Perturbation  140 (of  276): O    19 Y at q=( 0.000, 0.000, 0.000):   6721.63s
 Perturbation  141 (of  276): O    19 Z at q=( 0.000, 0.000, 0.000):   6780.29s
 Perturbation  142 (of  276): O    20 X at q=( 0.000, 0.000, 0.000):   6842.36s
 Perturbation  143 (of  276): O    20 Y at q=( 0.000, 0.000, 0.000):   6896.73s
 Perturbation  144 (of  276): O    20 Z at q=( 0.000, 0.000, 0.000):   6950.98s
 Perturbation  145 (of  276): O    21 X at q=( 0.000, 0.000, 0.000):   7005.51s
 Perturbation  146 (of  276): O    21 Y at q=( 0.000, 0.000, 0.000):   7059.32s
 Perturbation  147 (of  276): O    21 Z at q=( 0.000, 0.000, 0.000):   7110.21s
 Perturbation  148 (of  276): O    22 X at q=( 0.000, 0.000, 0.000):   7160.53s
 Perturbation  149 (of  276): O    22 Y at q=( 0.000, 0.000, 0.000):   7215.53s
 Perturbation  150 (of  276): O    22 Z at q=( 0.000, 0.000, 0.000):   7266.31s
 Perturbation  151 (of  276): O    23 X at q=( 0.000, 0.000, 0.000):   7317.04s
 Perturbation  152 (of  276): O    23 Y at q=( 0.000, 0.000, 0.000):   7363.96s
 Perturbation  153 (of  276): O    23 Z at q=( 0.000, 0.000, 0.000):   7406.76s
 Perturbation  154 (of  276): O    24 X at q=( 0.000, 0.000, 0.000):   7453.77s
 Perturbation  155 (of  276): O    24 Y at q=( 0.000, 0.000, 0.000):   7508.28s
 Perturbation  156 (of  276): O    24 Z at q=( 0.000, 0.000, 0.000):   7563.05s
 Perturbation  157 (of  276): O    25 X at q=( 0.000, 0.000, 0.000):   7620.98s
 Perturbation  158 (of  276): O    25 Y at q=( 0.000, 0.000, 0.000):   7675.78s
 Perturbation  159 (of  276): O    25 Z at q=( 0.000, 0.000, 0.000):   7734.14s
 Perturbation  160 (of  276): O    26 X at q=( 0.000, 0.000, 0.000):   7791.97s
 Perturbation  161 (of  276): O    26 Y at q=( 0.000, 0.000, 0.000):   7838.68s
 Perturbation  162 (of  276): O    26 Z at q=( 0.000, 0.000, 0.000):   7881.77s
 Perturbation  163 (of  276): O    27 X at q=( 0.000, 0.000, 0.000):   7925.06s
 Perturbation  164 (of  276): O    27 Y at q=( 0.000, 0.000, 0.000):   7975.42s
 Perturbation  165 (of  276): O    27 Z at q=( 0.000, 0.000, 0.000):   8026.08s
 Perturbation  166 (of  276): O    28 X at q=( 0.000, 0.000, 0.000):   8072.78s
 Perturbation  167 (of  276): O    28 Y at q=( 0.000, 0.000, 0.000):   8116.19s
 Perturbation  168 (of  276): O    28 Z at q=( 0.000, 0.000, 0.000):   8159.08s
 Perturbation  169 (of  276): O    29 X at q=( 0.000, 0.000, 0.000):   8202.21s
 Perturbation  170 (of  276): O    29 Y at q=( 0.000, 0.000, 0.000):   8245.13s
 Perturbation  171 (of  276): O    29 Z at q=( 0.000, 0.000, 0.000):   8287.62s
 Perturbation  172 (of  276): O    30 X at q=( 0.000, 0.000, 0.000):   8331.41s
 Perturbation  173 (of  276): O    30 Y at q=( 0.000, 0.000, 0.000):   8386.26s
 Perturbation  174 (of  276): O    30 Z at q=( 0.000, 0.000, 0.000):   8440.89s
 Perturbation  175 (of  276): O    31 X at q=( 0.000, 0.000, 0.000):   8495.02s
 Perturbation  176 (of  276): O    31 Y at q=( 0.000, 0.000, 0.000):   8541.94s
 Perturbation  177 (of  276): O    31 Z at q=( 0.000, 0.000, 0.000):   8585.12s
 Perturbation  178 (of  276): O    32 X at q=( 0.000, 0.000, 0.000):   8628.27s
 Perturbation  179 (of  276): O    32 Y at q=( 0.000, 0.000, 0.000):   8690.41s
 Perturbation  180 (of  276): O    32 Z at q=( 0.000, 0.000, 0.000):   8747.85s
 Perturbation  181 (of  276): O    33 X at q=( 0.000, 0.000, 0.000):   8805.50s
 Perturbation  182 (of  276): O    33 Y at q=( 0.000, 0.000, 0.000):   8863.46s
 Perturbation  183 (of  276): O    33 Z at q=( 0.000, 0.000, 0.000):   8925.14s
 Perturbation  184 (of  276): O    34 X at q=( 0.000, 0.000, 0.000):   8983.19s
 Perturbation  185 (of  276): O    34 Y at q=( 0.000, 0.000, 0.000):   9030.07s
 Perturbation  186 (of  276): O    34 Z at q=( 0.000, 0.000, 0.000):   9073.40s
 Perturbation  187 (of  276): O    35 X at q=( 0.000, 0.000, 0.000):   9120.75s
 Perturbation  188 (of  276): O    35 Y at q=( 0.000, 0.000, 0.000):   9179.24s
 Perturbation  189 (of  276): O    35 Z at q=( 0.000, 0.000, 0.000):   9237.80s
 Perturbation  190 (of  276): O    36 X at q=( 0.000, 0.000, 0.000):   9295.71s
 Perturbation  191 (of  276): O    36 Y at q=( 0.000, 0.000, 0.000):   9353.93s
 Perturbation  192 (of  276): O    36 Z at q=( 0.000, 0.000, 0.000):   9411.74s
 Perturbation  193 (of  276): O    37 X at q=( 0.000, 0.000, 0.000):   9470.04s
 Perturbation  194 (of  276): O    37 Y at q=( 0.000, 0.000, 0.000):   9528.71s
 Perturbation  195 (of  276): O    37 Z at q=( 0.000, 0.000, 0.000):   9582.81s
 Perturbation  196 (of  276): O    38 X at q=( 0.000, 0.000, 0.000):   9637.13s
 Perturbation  197 (of  276): O    38 Y at q=( 0.000, 0.000, 0.000):   9695.61s
 Perturbation  198 (of  276): O    38 Z at q=( 0.000, 0.000, 0.000):   9753.92s
 Perturbation  199 (of  276): O    39 X at q=( 0.000, 0.000, 0.000):   9812.34s
 Perturbation  200 (of  276): O    39 Y at q=( 0.000, 0.000, 0.000):   9862.48s
 Perturbation  201 (of  276): O    39 Z at q=( 0.000, 0.000, 0.000):   9913.23s
 Perturbation  202 (of  276): O    40 X at q=( 0.000, 0.000, 0.000):   9959.69s
 Perturbation  203 (of  276): O    40 Y at q=( 0.000, 0.000, 0.000):  10006.30s
 Perturbation  204 (of  276): O    40 Z at q=( 0.000, 0.000, 0.000):  10053.28s
 Perturbation  205 (of  276): O    41 X at q=( 0.000, 0.000, 0.000):  10099.82s
 Perturbation  206 (of  276): O    41 Y at q=( 0.000, 0.000, 0.000):  10147.05s
 Perturbation  207 (of  276): O    41 Z at q=( 0.000, 0.000, 0.000):  10197.56s
 Perturbation  208 (of  276): O    42 X at q=( 0.000, 0.000, 0.000):  10244.57s
 Perturbation  209 (of  276): O    42 Y at q=( 0.000, 0.000, 0.000):  10294.56s
 Perturbation  210 (of  276): O    42 Z at q=( 0.000, 0.000, 0.000):  10344.75s
 Perturbation  211 (of  276): O    43 X at q=( 0.000, 0.000, 0.000):  10395.16s
 Perturbation  212 (of  276): O    43 Y at q=( 0.000, 0.000, 0.000):  10445.54s
 Perturbation  213 (of  276): O    43 Z at q=( 0.000, 0.000, 0.000):  10496.48s
 Perturbation  214 (of  276): O    44 X at q=( 0.000, 0.000, 0.000):  10546.66s
 Perturbation  215 (of  276): O    44 Y at q=( 0.000, 0.000, 0.000):  10597.69s
 Perturbation  216 (of  276): O    44 Z at q=( 0.000, 0.000, 0.000):  10648.35s
 Perturbation  217 (of  276): Na    1 X at q=( 0.000, 0.000, 0.000):  10699.02s
 Perturbation  218 (of  276): Na    1 Y at q=( 0.000, 0.000, 0.000):  10741.99s
 Perturbation  219 (of  276): Na    1 Z at q=( 0.000, 0.000, 0.000):  10784.62s
 Perturbation  220 (of  276): Na    2 X at q=( 0.000, 0.000, 0.000):  10828.08s
 Perturbation  221 (of  276): Na    2 Y at q=( 0.000, 0.000, 0.000):  10871.64s
 Perturbation  222 (of  276): Na    2 Z at q=( 0.000, 0.000, 0.000):  10914.62s
 Perturbation  223 (of  276): Na    3 X at q=( 0.000, 0.000, 0.000):  10957.97s
 Perturbation  224 (of  276): Na    3 Y at q=( 0.000, 0.000, 0.000):  11001.09s
 Perturbation  225 (of  276): Na    3 Z at q=( 0.000, 0.000, 0.000):  11044.61s
 Perturbation  226 (of  276): Na    4 X at q=( 0.000, 0.000, 0.000):  11087.19s
 Perturbation  227 (of  276): Na    4 Y at q=( 0.000, 0.000, 0.000):  11130.48s
 Perturbation  228 (of  276): Na    4 Z at q=( 0.000, 0.000, 0.000):  11172.99s
 Perturbation  229 (of  276): Na    5 X at q=( 0.000, 0.000, 0.000):  11216.70s
 Perturbation  230 (of  276): Na    5 Y at q=( 0.000, 0.000, 0.000):  11259.78s
 Perturbation  231 (of  276): Na    5 Z at q=( 0.000, 0.000, 0.000):  11299.28s
 Perturbation  232 (of  276): Na    6 X at q=( 0.000, 0.000, 0.000):  11342.40s
 Perturbation  233 (of  276): Na    6 Y at q=( 0.000, 0.000, 0.000):  11385.91s
 Perturbation  234 (of  276): Na    6 Z at q=( 0.000, 0.000, 0.000):  11429.03s
 Perturbation  235 (of  276): Na    7 X at q=( 0.000, 0.000, 0.000):  11472.14s
 Perturbation  236 (of  276): Na    7 Y at q=( 0.000, 0.000, 0.000):  11515.36s
 Perturbation  237 (of  276): Na    7 Z at q=( 0.000, 0.000, 0.000):  11558.40s
 Perturbation  238 (of  276): Na    8 X at q=( 0.000, 0.000, 0.000):  11602.01s
 Perturbation  239 (of  276): Na    8 Y at q=( 0.000, 0.000, 0.000):  11645.53s
 Perturbation  240 (of  276): Na    8 Z at q=( 0.000, 0.000, 0.000):  11688.90s
 Perturbation  241 (of  276): Na    9 X at q=( 0.000, 0.000, 0.000):  11731.49s
 Perturbation  242 (of  276): Na    9 Y at q=( 0.000, 0.000, 0.000):  11774.56s
 Perturbation  243 (of  276): Na    9 Z at q=( 0.000, 0.000, 0.000):  11817.65s
 Perturbation  244 (of  276): Na   10 X at q=( 0.000, 0.000, 0.000):  11860.67s
 Perturbation  245 (of  276): Na   10 Y at q=( 0.000, 0.000, 0.000):  11903.27s
 Perturbation  246 (of  276): Na   10 Z at q=( 0.000, 0.000, 0.000):  11946.84s
 Perturbation  247 (of  276): Na   11 X at q=( 0.000, 0.000, 0.000):  11989.15s
 Perturbation  248 (of  276): Na   11 Y at q=( 0.000, 0.000, 0.000):  12031.28s
 Perturbation  249 (of  276): Na   11 Z at q=( 0.000, 0.000, 0.000):  12074.68s
 Perturbation  250 (of  276): Na   12 X at q=( 0.000, 0.000, 0.000):  12118.32s
 Perturbation  251 (of  276): Na   12 Y at q=( 0.000, 0.000, 0.000):  12160.90s
 Perturbation  252 (of  276): Na   12 Z at q=( 0.000, 0.000, 0.000):  12203.94s
 Perturbation  253 (of  276): Na   13 X at q=( 0.000, 0.000, 0.000):  12246.45s
 Perturbation  254 (of  276): Na   13 Y at q=( 0.000, 0.000, 0.000):  12289.40s
 Perturbation  255 (of  276): Na   13 Z at q=( 0.000, 0.000, 0.000):  12332.01s
 Perturbation  256 (of  276): Na   14 X at q=( 0.000, 0.000, 0.000):  12375.13s
 Perturbation  257 (of  276): Na   14 Y at q=( 0.000, 0.000, 0.000):  12417.55s
 Perturbation  258 (of  276): Na   14 Z at q=( 0.000, 0.000, 0.000):  12457.02s
 Perturbation  259 (of  276): Na   15 X at q=( 0.000, 0.000, 0.000):  12496.20s
 Perturbation  260 (of  276): Na   15 Y at q=( 0.000, 0.000, 0.000):  12539.28s
 Perturbation  261 (of  276): Na   15 Z at q=( 0.000, 0.000, 0.000):  12582.12s
 Perturbation  262 (of  276): Na   16 X at q=( 0.000, 0.000, 0.000):  12625.69s
 Perturbation  263 (of  276): Na   16 Y at q=( 0.000, 0.000, 0.000):  12668.53s
 Perturbation  264 (of  276): Na   16 Z at q=( 0.000, 0.000, 0.000):  12707.88s
 Perturbation  265 (of  276): Ti    1 X at q=( 0.000, 0.000, 0.000):  12747.56s
 Perturbation  266 (of  276): Ti    1 Y at q=( 0.000, 0.000, 0.000):  12809.40s
 Perturbation  267 (of  276): Ti    1 Z at q=( 0.000, 0.000, 0.000):  12871.43s
 Perturbation  268 (of  276): Ti    2 X at q=( 0.000, 0.000, 0.000):  12933.00s
 Perturbation  269 (of  276): Ti    2 Y at q=( 0.000, 0.000, 0.000):  12994.77s
 Perturbation  270 (of  276): Ti    2 Z at q=( 0.000, 0.000, 0.000):  13055.90s
 Perturbation  271 (of  276): Ti    3 X at q=( 0.000, 0.000, 0.000):  13117.25s
 Perturbation  272 (of  276): Ti    3 Y at q=( 0.000, 0.000, 0.000):  13175.74s
 Perturbation  273 (of  276): Ti    3 Z at q=( 0.000, 0.000, 0.000):  13237.13s
 Perturbation  274 (of  276): Ti    4 X at q=( 0.000, 0.000, 0.000):  13298.89s
 Perturbation  275 (of  276): Ti    4 Y at q=( 0.000, 0.000, 0.000):  13360.28s
 Perturbation  276 (of  276): Ti    4 Z at q=( 0.000, 0.000, 0.000):  13422.39s
 
 ==============================================================================
 +                           Vibrational Frequencies                          +
 +                           -----------------------                          +
 +                                                                            +
 + Performing frequency calculation at  1 wavevector  (q-pt )                 +
 + ========================================================================== +
 +                                                                            +
 + -------------------------------------------------------------------------- +
 +  q-pt=    1 (  0.000000  0.000000  0.000000)     1.0000000000              +
 + -------------------------------------------------------------------------- +
 +  Acoustic sum rule correction <  40.073789 cm-1 applied                    +
 +     N      Frequency irrep.    ir intensity active            raman active + 
 +                (cm-1)         ((D/A)**2/amu)                               + 
 +                                                                            +
 +     1      -0.045036   a          0.0000000  N                       N     + 
 +     2      -0.035415   a          0.0000000  N                       N     + 
 +     3      -0.026259   a          0.0000000  N                       N     + 
 +     4      47.087395   a          0.2357788  Y                       Y     + 
 +     5      50.269543   a          0.3219244  Y                       Y     + 
 +     6      51.822017   a          0.5244292  Y                       Y     + 
 +     7      59.634335   a          0.8056534  Y                       Y     + 
 +     8      63.593227   a          0.3234386  Y                       Y     + 
 +     9      66.484329   a          0.6680426  Y                       Y     + 
 +    10      66.996583   a          0.6487129  Y                       Y     + 
 +    11      69.001015   a          0.3185553  Y                       Y     + 
 +    12      70.005779   a          0.3680121  Y                       Y     + 
 +    13      73.776795   a          0.1141898  Y                       Y     + 
 +    14      77.006565   a          0.3409078  Y                       Y     + 
 +    15      78.424902   a          0.0353947  Y                       Y     + 
 +    16      83.276481   a          0.0874805  Y                       Y     + 
 +    17      84.987530   a          0.2593240  Y                       Y     + 
 +    18      88.120141   a          0.1377479  Y                       Y     + 
 +    19      92.124941   a          0.4053291  Y                       Y     + 
 +    20      92.299398   a          0.0962347  Y                       Y     + 
 +    21      94.602792   a          2.3695333  Y                       Y     + 
 +    22      97.169262   a          0.4743081  Y                       Y     + 
 +    23      97.857573   a          0.3071544  Y                       Y     + 
 +    24     101.498254   a          0.4833592  Y                       Y     + 
 +    25     103.673777   a          0.2901177  Y                       Y     + 
 +    26     105.362553   a          0.0489017  Y                       Y     + 
 +    27     107.131159   a          0.2733932  Y                       Y     + 
 +    28     108.623216   a          1.0389571  Y                       Y     + 
 +    29     109.618639   a          0.5348430  Y                       Y     + 
 +    30     110.114618   a          0.7197942  Y                       Y     + 
 +    31     112.276499   a          0.4280043  Y                       Y     + 
 +    32     113.512233   a          0.4460413  Y                       Y     + 
 +    33     117.176264   a          0.2932869  Y                       Y     + 
 +    34     119.934371   a          2.0575197  Y                       Y     + 
 +    35     120.747728   a          0.7085795  Y                       Y     + 
 +    36     121.296216   a          0.1931071  Y                       Y     + 
 +    37     124.258767   a          0.8193297  Y                       Y     + 
 +    38     126.667422   a          0.2673137  Y                       Y     + 
 +    39     128.782260   a          0.8223193  Y                       Y     + 
 +    40     129.976661   a          0.3245302  Y                       Y     + 
 +    41     131.708136   a          2.0745686  Y                       Y     + 
 +    42     132.193708   a          1.6823889  Y                       Y     + 
 +    43     134.173798   a          0.6626608  Y                       Y     + 
 +    44     137.299383   a          1.1786535  Y                       Y     + 
 +    45     139.244419   a          0.2825186  Y                       Y     + 
 +    46     139.460669   a          0.2664463  Y                       Y     + 
 +    47     141.675722   a          0.1757702  Y                       Y     + 
 +    48     142.726240   a          0.1365409  Y                       Y     + 
 +    49     143.443142   a          0.3731180  Y                       Y     + 
 +    50     147.922936   a          1.1588473  Y                       Y     + 
 +    51     149.132834   a          0.2962076  Y                       Y     + 
 +    52     152.017852   a          0.2518952  Y                       Y     + 
 +    53     153.366251   a          0.3323297  Y                       Y     + 
 +    54     155.270082   a          0.2196186  Y                       Y     + 
 +    55     155.614539   a          0.5411727  Y                       Y     + 
 +    56     156.109236   a          0.9547822  Y                       Y     + 
 +    57     157.351984   a          0.9837872  Y                       Y     + 
 +    58     158.843763   a          0.8197335  Y                       Y     + 
 +    59     161.793992   a          2.1559004  Y                       Y     + 
 +    60     164.007607   a          0.7242957  Y                       Y     + 
 +    61     166.587554   a          0.6804041  Y                       Y     + 
 +    62     168.077239   a          3.6106776  Y                       Y     + 
 +    63     169.768599   a          2.3854226  Y                       Y     + 
 +    64     170.288357   a          1.3891645  Y                       Y     + 
 +    65     171.810062   a          0.2247749  Y                       Y     + 
 +    66     173.570615   a          1.3560988  Y                       Y     + 
 +    67     174.778071   a          0.7918876  Y                       Y     + 
 +    68     175.859739   a          0.3499297  Y                       Y     + 
 +    69     177.742668   a          0.0294570  Y                       Y     + 
 +    70     178.708048   a          1.0765681  Y                       Y     + 
 +    71     181.003688   a          1.9502801  Y                       Y     + 
 +    72     182.663388   a          0.7617616  Y                       Y     + 
 +    73     184.051200   a          0.5142687  Y                       Y     + 
 +    74     184.545435   a          0.2374935  Y                       Y     + 
 +    75     186.060576   a          1.1036027  Y                       Y     + 
 +    76     188.702198   a          1.6568441  Y                       Y     + 
 +    77     190.842649   a          3.1449387  Y                       Y     + 
 +    78     192.330081   a          0.6800671  Y                       Y     + 
 +    79     193.484055   a          0.5306571  Y                       Y     + 
 +    80     194.522818   a          2.0892088  Y                       Y     + 
 +    81     195.852024   a          0.6978518  Y                       Y     + 
 +    82     197.610041   a          1.6418441  Y                       Y     + 
 +    83     199.374365   a          0.4213280  Y                       Y     + 
 +    84     199.870584   a          1.0528821  Y                       Y     + 
 +    85     202.439712   a          0.1789740  Y                       Y     + 
 +    86     204.474046   a          1.1683178  Y                       Y     + 
 +    87     205.580514   a          0.3280973  Y                       Y     + 
 +    88     207.138960   a          1.9640934  Y                       Y     + 
 +    89     208.107872   a          0.4831932  Y                       Y     + 
 +    90     209.245173   a          0.9536627  Y                       Y     + 
 +    91     211.988941   a          0.9333792  Y                       Y     + 
 +    92     213.657191   a          0.5021402  Y                       Y     + 
 +    93     213.763694   a          0.3384985  Y                       Y     + 
 +    94     217.061987   a          1.3114548  Y                       Y     + 
 +    95     217.933684   a          0.1308395  Y                       Y     + 
 +    96     221.871088   a          1.2217401  Y                       Y     + 
 +    97     222.525376   a          1.4889144  Y                       Y     + 
 +    98     223.530615   a          1.0326050  Y                       Y     + 
 +    99     224.840621   a          1.4402684  Y                       Y     + 
 +   100     227.718231   a          1.1680672  Y                       Y     + 
 +   101     229.637607   a          0.4569442  Y                       Y     + 
 +   102     231.285282   a          2.9475488  Y                       Y     + 
 +   103     232.292319   a          0.6552556  Y                       Y     + 
 +   104     234.272735   a          1.4877161  Y                       Y     + 
 +   105     236.079266   a          0.3030188  Y                       Y     + 
 +   106     238.810044   a          3.3015611  Y                       Y     + 
 +   107     240.997451   a          1.8493153  Y                       Y     + 
 +   108     243.359077   a          2.0779517  Y                       Y     + 
 +   109     244.752424   a          0.0676964  Y                       Y     + 
 +   110     246.476744   a          1.1518459  Y                       Y     + 
 +   111     247.540884   a          0.2834164  Y                       Y     + 
 +   112     249.598285   a          0.8207541  Y                       Y     + 
 +   113     254.750779   a          1.1950678  Y                       Y     + 
 +   114     256.947260   a          1.1364459  Y                       Y     + 
 +   115     260.415417   a          4.0546855  Y                       Y     + 
 +   116     261.564594   a          0.4025929  Y                       Y     + 
 +   117     262.688450   a          0.9155370  Y                       Y     + 
 +   118     264.347019   a          1.2969143  Y                       Y     + 
 +   119     265.175006   a          2.9724862  Y                       Y     + 
 +   120     272.861768   a          0.7043976  Y                       Y     + 
 +   121     274.690097   a          1.4899632  Y                       Y     + 
 +   122     278.002212   a          0.7319741  Y                       Y     + 
 +   123     282.173299   a          0.7215281  Y                       Y     + 
 +   124     284.556967   a          1.2214139  Y                       Y     + 
 +   125     286.946608   a          0.4300230  Y                       Y     + 
 +   126     288.171888   a          0.7221159  Y                       Y     + 
 +   127     289.876897   a          0.4307325  Y                       Y     + 
 +   128     292.611453   a          1.6471133  Y                       Y     + 
 +   129     292.703180   a          0.1164321  Y                       Y     + 
 +   130     296.362006   a          1.3830770  Y                       Y     + 
 +   131     300.126144   a          1.6135398  Y                       Y     + 
 +   132     304.336191   a          2.0394789  Y                       Y     + 
 +   133     308.527801   a          0.8023439  Y                       Y     + 
 +   134     310.511485   a          0.2278861  Y                       Y     + 
 +   135     313.555909   a          0.1232197  Y                       Y     + 
 +   136     316.552239   a          1.4453228  Y                       Y     + 
 +   137     318.006668   a          1.1462383  Y                       Y     + 
 +   138     320.113097   a          0.5291043  Y                       Y     + 
 +   139     321.504885   a          0.5209696  Y                       Y     + 
 +   140     324.234296   a          0.9301849  Y                       Y     + 
 +   141     332.500375   a          0.1778312  Y                       Y     + 
 +   142     334.166885   a          0.9207081  Y                       Y     + 
 +   143     338.902657   a          0.5681716  Y                       Y     + 
 +   144     343.512601   a          0.6173268  Y                       Y     + 
 +   145     350.014307   a          1.7226516  Y                       Y     + 
 +   146     355.445387   a          1.2356636  Y                       Y     + 
 +   147     358.208478   a          0.9533715  Y                       Y     + 
 +   148     362.463957   a          0.3498074  Y                       Y     + 
 +   149     364.152112   a          1.3678618  Y                       Y     + 
 +   150     366.477042   a          1.2747945  Y                       Y     + 
 +   151     375.543342   a          0.8406864  Y                       Y     + 
 +   152     381.896900   a          0.7599955  Y                       Y     + 
 +   153     403.412248   a          0.4121644  Y                       Y     + 
 +   154     409.469727   a          1.4646996  Y                       Y     + 
 +   155     426.977301   a          1.9578747  Y                       Y     + 
 +   156     444.152251   a          0.3628044  Y                       Y     + 
 +   157     455.577780   a          1.2612942  Y                       Y     + 
 +   158     459.229624   a          1.5746311  Y                       Y     + 
 +   159     470.219677   a          0.6754714  Y                       Y     + 
 +   160     493.326790   a         15.3814465  Y                       Y     + 
 +   161     506.898945   a          2.2082793  Y                       Y     + 
 +   162     515.133437   a         19.1329156  Y                       Y     + 
 +   163     528.103843   a          6.1121216  Y                       Y     + 
 +   164     537.008262   a          3.4083082  Y                       Y     + 
 +   165     538.718255   a          3.4577765  Y                       Y     + 
 +   166     546.878706   a         10.0051620  Y                       Y     + 
 +   167     554.784551   a          6.4403154  Y                       Y     + 
 +   168     562.559251   a          4.3708587  Y                       Y     + 
 +   169     567.072493   a         10.9678349  Y                       Y     + 
 +   170     579.096840   a          3.5235258  Y                       Y     + 
 +   171     592.230049   a          3.2146488  Y                       Y     + 
 +   172     623.926033   a          1.3484965  Y                       Y     + 
 +   173     629.918359   a          2.4940068  Y                       Y     + 
 +   174     633.142583   a          5.2024414  Y                       Y     + 
 +   175     649.922786   a          0.1285078  Y                       Y     + 
 +   176     652.572792   a          7.0578604  Y                       Y     + 
 +   177     660.390170   a          0.3656628  Y                       Y     + 
 +   178     663.937653   a          2.3020491  Y                       Y     + 
 +   179     664.737254   a          0.7519805  Y                       Y     + 
 +   180     670.313481   a          1.7331123  Y                       Y     + 
 +   181     670.894900   a          0.1540098  Y                       Y     + 
 +   182     693.267761   a          5.6863581  Y                       Y     + 
 +   183     695.019442   a          2.4764179  Y                       Y     + 
 +   184     696.576310   a          2.8135527  Y                       Y     + 
 +   185     698.926105   a          0.5977638  Y                       Y     + 
 +   186     702.335595   a          0.3814815  Y                       Y     + 
 +   187     703.133989   a         10.4167550  Y                       Y     + 
 +   188     707.656794   a          1.9183460  Y                       Y     + 
 +   189     713.753692   a          0.4559369  Y                       Y     + 
 +   190     722.333869   a          5.2175902  Y                       Y     + 
 +   191     730.568019   a          4.4561761  Y                       Y     + 
 +   192     733.026488   a          4.5018775  Y                       Y     + 
 +   193     742.328001   a          0.7203456  Y                       Y     + 
 +   194     746.092572   a          0.3957185  Y                       Y     + 
 +   195     750.713570   a          6.3945741  Y                       Y     + 
 +   196     755.951495   a          5.9618083  Y                       Y     + 
 +   197     763.050808   a         14.5516439  Y                       Y     + 
 +   198     765.922792   a          7.8763176  Y                       Y     + 
 +   199     784.279634   a          7.0886709  Y                       Y     + 
 +   200     786.340022   a          1.1551185  Y                       Y     + 
 +   201     801.403612   a          3.7350281  Y                       Y     + 
 +   202     817.939428   a          0.8988146  Y                       Y     + 
 +   203     818.686304   a         12.8780336  Y                       Y     + 
 +   204     820.416325   a          0.6477669  Y                       Y     + 
 +   205     823.577979   a          0.8426109  Y                       Y     + 
 +   206     826.120819   a          4.0117971  Y                       Y     + 
 +   207     829.343815   a          0.9476952  Y                       Y     + 
 +   208     831.933788   a          7.9800984  Y                       Y     + 
 +   209     834.802185   a          1.3230560  Y                       Y     + 
 +   210     836.909142   a          3.5130800  Y                       Y     + 
 +   211     844.531140   a          1.6550450  Y                       Y     + 
 +   212     845.725000   a          0.3462190  Y                       Y     + 
 +   213     848.870812   a          3.6507910  Y                       Y     + 
 +   214     850.359038   a          0.9986499  Y                       Y     + 
 +   215     861.155524   a          1.5518095  Y                       Y     + 
 +   216     867.049228   a          3.7942133  Y                       Y     + 
 +   217     869.893900   a          1.9092750  Y                       Y     + 
 +   218     874.702235   a          3.8057755  Y                       Y     + 
 +   219     881.020529   a          1.3008995  Y                       Y     + 
 +   220     893.555136   a          2.8522180  Y                       Y     + 
 +   221     899.387007   a          1.7711386  Y                       Y     + 
 +   222     911.034455   a          4.5536697  Y                       Y     + 
 +   223     927.454226   a          3.5818795  Y                       Y     + 
 +   224     932.917032   a          0.8084951  Y                       Y     + 
 +   225     941.220300   a          2.3462866  Y                       Y     + 
 +   226     954.792188   a          2.6831318  Y                       Y     + 
 +   227     981.188885   a          1.5238056  Y                       Y     + 
 +   228    1024.997988   a          0.2192393  Y                       Y     + 
 +   229    1026.800043   a          0.5760749  Y                       Y     + 
 +   230    1027.233559   a          0.6425020  Y                       Y     + 
 +   231    1034.093739   a          0.2695739  Y                       Y     + 
 +   232    1046.929162   a          3.7491667  Y                       Y     + 
 +   233    1317.372951   a         60.4376228  Y                       Y     + 
 +   234    1326.740004   a          9.1751398  Y                       Y     + 
 +   235    1342.157204   a         15.1640768  Y                       Y     + 
 +   236    1343.970090   a          6.4361606  Y                       Y     + 
 +   237    1459.736252   a         29.9510325  Y                       Y     + 
[...]
              H 1  -- H 5                   -0.11        1.60952
              H 13 -- H 17                  -0.11        1.60974
              H 12 -- O 18                   0.12        1.67287
              H 9  -- O 10                   0.11        1.68249
              H 24 -- O 37                   0.11        1.70386
              O 15 -- Ti 3                   0.74        1.72494
              O 30 -- Ti 4                   0.74        1.72740
              H 1  -- O 38                   0.10        1.73171
              H 5  -- O 12                   0.11        1.73230
              H 17 -- O 32                   0.12        1.73382
              H 22 -- O 34                   0.09        1.74459
              H 18 -- O 39                   0.11        1.74719
              H 11 -- O 12                   0.08        1.75294
              O 10 -- Ti 2                   0.74        1.75786
              O 37 -- Ti 1                   0.72        1.75810
              H 10 -- O 14                   0.09        1.75974
              H 20 -- O 25                   0.11        1.76454
              H 6  -- O 44                   0.08        1.77867
              H 3  -- O 3                    0.07        1.77986
              H 19 -- O 43                   0.08        1.79428
              H 16 -- O 39                   0.08        1.79799
              H 2  -- O 5                    0.08        1.82776
              H 8  -- O 40                   0.06        1.82895
              H 23 -- O 32                   0.06        1.93305
              O 35 -- Ti 1                   0.28        1.96295
              H 15 -- O 23                   0.04        1.96506
              O 12 -- Ti 2                   0.26        1.97255
              O 38 -- Ti 4                   0.22        1.97758
              O 18 -- Ti 3                   0.21        1.98065
              O 24 -- Ti 3                   0.19        1.98536
              O 16 -- Ti 3                   0.21        1.98557
              O 17 -- Ti 2                   0.22        1.98855
              O 7  -- Ti 1                   0.24        1.99265
              O 25 -- Ti 3                   0.20        1.99623
              O 2  -- Ti 1                   0.18        1.99857
              O 33 -- Ti 4                   0.22        2.00202
              O 32 -- Ti 4                   0.25        2.00228
              O 19 -- Ti 2                   0.21        2.02087
              H 7  -- O 9                    0.04        2.03703
              O 36 -- Ti 1                   0.21        2.03943
              O 1  -- Ti 4                   0.17        2.04193
              H 14 -- O 17                   0.04        2.04585
              O 13 -- Ti 2                   0.19        2.05830
              H 16 -- H 18                  -0.01        2.10691
              O 5  -- Ti 1                   0.21        2.10729
              O 21 -- Ti 2                   0.23        2.13643
              H 8  -- H 10                  -0.02        2.14012
              H 13 -- O 17                   0.05        2.14996
              O 22 -- Ti 3                   0.26        2.15383
              O 43 -- Ti 4                   0.24        2.15878
              O 4  -- O 5                   -0.20        2.22170
              O 24 -- Na 13                  0.14        2.22293
              O 15 -- Na 5                   0.16        2.22403
              H 19 -- H 21                  -0.02        2.22495
              O 42 -- O 43                  -0.20        2.22524
              H 21 -- O 43                   0.02        2.22669
              O 20 -- O 21                  -0.20        2.22989
              O 22 -- O 39                  -0.19        2.24359
              O 22 -- O 27                  -0.18        2.25517
              H 7  -- H 9                   -0.00        2.25860
              O 5  -- O 40                  -0.18        2.26134
              O 21 -- O 41                  -0.17        2.26200
              O 20 -- O 41                  -0.18        2.26481
              O 43 -- O 44                  -0.18        2.26526
              O 42 -- O 44                  -0.17        2.26575
              O 19 -- Na 12                  0.05        2.27115
              O 4  -- O 40                  -0.17        2.27130
              O 27 -- O 39                  -0.17        2.27259
              H 10 -- H 12                  -0.01        2.27722
              H 15 -- H 17                  -0.02        2.28931
              H 17 -- H 23                  -0.01        2.29417
              H 20 -- H 22                  -0.01        2.29541
              O 36 -- Na 1                   0.03        2.30442
              H 1  -- H 3                   -0.01        2.30468
              O 36 -- Na 13                 -0.01        2.31360
              O 16 -- Na 6                   0.12        2.31830
              O 4  -- Na 1                   0.06        2.32164
              H 22 -- H 24                  -0.01        2.32210
              H 6  -- H 7                   -0.01        2.32508
              O 30 -- Na 12                 -0.01        2.33108
              O 11 -- Na 6                   0.09        2.33399
              O 16 -- Na 10                  0.02        2.33760
              H 5  -- H 11                  -0.00        2.33919
              O 4  -- Na 5                   0.08        2.34015
              O 30 -- Na 11                  0.17        2.34087
              O 44 -- Na 1                   0.13        2.34324
              O 2  -- Na 1                   0.16        2.34395
              O 41 -- Na 8                   0.09        2.34479
              O 35 -- Na 13                 -0.04        2.34520
              O 42 -- Na 3                   0.10        2.34692
              O 6  -- Na 3                   0.08        2.35540
              O 3  -- Na 2                   0.02        2.36259
              O 20 -- Ti 2                   0.12        2.36378
              H 4  -- O 7                   -0.03        2.36775
              O 25 -- Na 10                  0.16        2.36989
              O 40 -- Na 6                   0.10        2.37779
              O 31 -- Na 14                  0.08        2.38510
              H 3  -- H 5                   -0.01        2.38859
              O 42 -- Na 4                   0.02        2.39064
              O 28 -- Na 11                  0.12        2.39079
              O 38 -- Na 3                   0.04        2.39819
              O 4  -- Ti 1                   0.12        2.39822
              O 13 -- Na 4                   0.06        2.39845
              O 1  -- Na 3                   0.02        2.40719
              O 27 -- Na 14                  0.12        2.40746
              O 20 -- Na 12                  0.05        2.40929
              O 33 -- Na 12                  0.08        2.40950
              O 34 -- Na 15                  0.09        2.41015
              O 37 -- Na 14                  0.21        2.41153
              O 33 -- Na 15                  0.10        2.41428
              O 26 -- Na 11                  0.14        2.41510
              O 35 -- Na 16                  0.13        2.41598
              O 24 -- Na 9                   0.07        2.42446
              O 8  -- Na 4                   0.08        2.42655
              O 40 -- Na 2                   0.09        2.42907
              O 1  -- Na 4                   0.09        2.43248
              O 41 -- Na 9                   0.03        2.43390
              O 11 -- Na 2                   0.05        2.43496
              O 14 -- Na 7                   0.13        2.43685
              O 19 -- Na 11                  0.16        2.43796
              O 22 -- Na 8                   0.10        2.44950
              O 20 -- Na 7                   0.04        2.45226
              O 7  -- Na 6                   0.15        2.45287
              O 28 -- Na 16                  0.05        2.45312
              H 17 -- Na 12                 -0.19        2.45402
              O 39 -- Na 8                   0.06        2.45415
              O 15 -- Na 9                   0.02        2.45507
              O 31 -- Na 10                  0.06        2.45633
              H 5  -- O 13                  -0.03        2.46403
              O 39 -- Na 9                   0.11        2.46937
              O 29 -- Na 14                 -0.02        2.47082
              O 27 -- Na 13                  0.04        2.47403
              O 7  -- Na 2                  -0.00        2.47830
              O 30 -- Na 16                  0.02        2.48188
              O 41 -- Na 11                  0.11        2.49220
              O 42 -- Ti 4                   0.10        2.49572
              O 36 -- Na 14                  0.07        2.49665
              O 44 -- Na 16                  0.05        2.50439
              O 38 -- Na 15                  0.10        2.51144
              O 23 -- Na 10                  0.02        2.51347
              O 17 -- Na 7                   0.09        2.51393
              O 8  -- Na 5                   0.08        2.51502
              H 8  -- C 2                   -0.04        2.51936
              O 10 -- Na 4                   0.02        2.52233
              O 35 -- Na 1                  -0.03        2.52482
              H 17 -- O 33                  -0.03        2.53224
              H 13 -- Na 12                 -0.16        2.53347
              H 18 -- C 1                   -0.02        2.54147
              H 6  -- C 4                   -0.03        2.54368
              O 21 -- Na 9                   0.08        2.54637
              H 20 -- O 24                  -0.03        2.54832
              O 13 -- Na 7                   0.06        2.56267
              H 19 -- C 4                   -0.02        2.56608
              H 9  -- Na 8                  -0.21        2.57526
              H 4  -- Na 5                  -0.20        2.57606
              O 1  -- Na 16                  0.06        2.57761
              O 26 -- Na 15                  0.08        2.57770
              O 2  -- O 8                   -0.12        2.58245
              O 10 -- Na 8                   0.05        2.58266
              O 29 -- Na 13                  0.16        2.58343
              H 16 -- C 1                   -0.02        2.60037
              H 13 -- H 14                  -0.00        2.60061
              O 27 -- Na 10                  0.03        2.60971
              O 37 -- Na 2                   0.02        2.60975
              H 1  -- O 1                   -0.02        2.61058
              H 7  -- Na 4                  -0.21        2.61632
              H 16 -- H 21                   0.00        2.61876
              O 37 -- Na 13                 -0.06        2.62050
               C 3 -- Ti 2                  -0.36        2.64850
              H 19 -- Na 16                 -0.14        2.65144
              O 10 -- Na 7                   0.02        2.65569
              O 9  -- Na 5                   0.10        2.65582
               C 2 -- Ti 1                  -0.39        2.65671
              O 19 -- Na 8                  -0.02        2.66428
              H 18 -- Na 14                 -0.21        2.66845
              H 12 -- O 16                  -0.02        2.67493
              H 18 -- O 27                  -0.01        2.67847
              O 9  -- O 10                  -0.09        2.67858
              O 14 -- O 18                  -0.10        2.68286
              O 6  -- Na 15                  0.08        2.68578
              H 14 -- Na 11                 -0.18        2.68875
              H 13 -- H 15                   0.00        2.69660
              H 24 -- Na 13                 -0.08        2.69753
              O 18 -- Na 10                  0.05        2.69907
              O 34 -- O 37                  -0.09        2.70261
              O 23 -- Na 12                 -0.10        2.70899
              O 20 -- Na 11                 -0.03        2.71310
              O 3  -- O 12                  -0.08        2.72246
              O 23 -- O 32                  -0.09        2.72362
              H 3  -- Na 3                  -0.15        2.72413
              O 3  -- O 38                  -0.08        2.72579
              H 5  -- Na 2                  -0.20        2.72997
              O 11 -- O 12                  -0.08        2.73002
              O 31 -- O 34                  -0.09        2.73303
               C 4 -- Ti 4                  -0.33        2.73320
              H 18 -- H 19                   0.00        2.73426
              H 14 -- O 19                  -0.01        2.73536
              O 21 -- Na 8                  -0.04        2.73599
              O 11 -- O 14                  -0.09        2.73609
              O 16 -- O 22                  -0.02        2.73948
              O 29 -- O 39                  -0.08        2.74637
              H 2  -- C 2                   -0.03        2.75650
              O 9  -- O 44                  -0.07        2.75679
              O 30 -- O 43                  -0.02        2.75700
              O 25 -- O 34                  -0.08        2.75964
              O 3  -- O 6                   -0.08        2.76557
              O 28 -- O 43                  -0.07        2.76984
              H 22 -- Na 15                 -0.06        2.77216
              O 14 -- O 40                  -0.06        2.77954
              O 18 -- O 25                  -0.02        2.78358
              O 28 -- O 39                  -0.07        2.78432
              H 11 -- Na 2                  -0.16        2.79473
              H 16 -- O 29                  -0.01        2.79836
              O 4  -- O 36                  -0.03        2.79910
              O 5  -- Na 2                  -0.05        2.80043
              O 2  -- O 35                  -0.02        2.80232
              H 17 -- O 31                  -0.00        2.80517
              O 32 -- Na 12                 -0.06        2.80543
              O 5  -- O 6                   -0.07        2.81607
              O 32 -- O 38                  -0.02        2.82003
              O 22 -- O 24                  -0.02        2.82188
               C 3 -- Na 9                  -0.32        2.82725
              O 10 -- O 19                  -0.02        2.82738
              O 15 -- O 24                  -0.02        2.83125
              H 9  -- Na 4                  -0.06        2.83391
              O 13 -- O 20                  -0.03        2.83587
              H 17 -- Na 10                 -0.13        2.83686
              O 5  -- O 7                   -0.02        2.83716
              H 11 -- O 13                  -0.01        2.83751
              O 5  -- O 37                  -0.01        2.84018
              O 19 -- O 21                  -0.02        2.84048
              H 19 -- O 33                  -0.00        2.84430
              H 16 -- Na 11                 -0.17        2.84614
              H 18 -- O 28                  -0.01        2.85103
              H 22 -- Na 14                 -0.11        2.85263
              O 33 -- O 43                  -0.02        2.85696
              H 21 -- O 28                  -0.01        2.85762
              H 18 -- Na 9                  -0.14        2.86111
              O 10 -- O 21                  -0.02        2.86113
              O 4  -- O 7                   -0.03        2.86207
               C 1 -- Na 8                  -0.33        2.86533
              H 6  -- O 42                  -0.01        2.86656
              O 31 -- O 32                  -0.05        2.86743
              O 1  -- O 30                  -0.01        2.86941
              O 12 -- O 17                  -0.01        2.87033
              O 1  -- O 42                  -0.04        2.87098
              O 19 -- O 20                  -0.03        2.87821
              O 17 -- Na 12                 -0.01        2.88129
              O 2  -- O 37                  -0.01        2.89047
              H 22 -- Na 10                 -0.07        2.89271
              O 15 -- O 22                  -0.01        2.89457
              O 5  -- O 36                  -0.01        2.89787
              H 6  -- Na 5                  -0.13        2.90002
              H 13 -- Na 10                 -0.14        2.90126
              O 10 -- O 12                  -0.01        2.90319
              O 7  -- Na 5                   0.02        2.90788
              H 20 -- Na 13                 -0.11        2.90811
              O 30 -- O 32                  -0.01        2.90817
              H 4  -- Na 1                  -0.03        2.90893
              H 8  -- O 5                   -0.01        2.91049
              O 36 -- O 37                  -0.01        2.91296
              O 23 -- O 26                  -0.05        2.91665
              O 17 -- O 26                  -0.04        2.91800
              H 19 -- O 29                  -0.01        2.91930
              O 22 -- Na 9                   0.01        2.92237
              O 30 -- O 33                  -0.01        2.92512
              H 23 -- Na 15                 -0.01        2.92559
              O 13 -- O 21                  -0.01        2.92770
              H 18 -- O 24                  -0.01        2.93974
              H 7  -- O 2                    0.00        2.94118
              O 7  -- O 37                  -0.01        2.94144
              H 15 -- Na 11                 -0.04        2.94614
              O 30 -- O 38                  -0.01        2.94761
               C 3 -- Na 11                 -0.22        2.95343
              O 8  -- O 9                   -0.05        2.95352
              O 10 -- O 17                  -0.01        2.95507
              O 15 -- O 25                  -0.00        2.96456
               C 1 -- Ti 3                  -0.17        2.96647
              H 19 -- O 44                  -0.01        2.96937
              H 1  -- Ti 4                  -0.07        2.97056
              H 10 -- Na 6                  -0.06        2.97404
               C 3 -- Na 12                 -0.08        2.97513
              H 12 -- H 14                   0.00        2.97607
              H 1  -- Na 2                  -0.10        2.97742
              O 10 -- O 13                  -0.01        2.98262
              H 6  -- Na 1                  -0.09        2.98268
              H 5  -- O 11                  -0.00        2.98448
              H 1  -- Na 3                  -0.01        2.98671
              H 23 -- Na 10                 -0.10        2.98719
              O 32 -- Na 15                 -0.02        2.98751
              H 12 -- O 40                  -0.00        2.98871
              H 2  -- O 40                  -0.01        2.99130
              H 11 -- O 14                  -0.00        2.99152
              O 33 -- O 42                  -0.02        2.99546
              H 13 -- O 19                  -0.01        2.99867
              O 9  -- Na 8                  -0.03        2.99878
              O 1  -- O 43                  -0.01        2.99941
======================================================================
 

Writing analysis data to Na4TiO5CO3_w_water_thermo.castep_bin

Writing model to Na4TiO5CO3_w_water_thermo.check
 
 A BibTeX formatted list of references used in this run has been written to 
 Na4TiO5CO3_w_water_thermo.bib
 
Initialisation time =     10.74 s
Calculation time    =  13503.20 s
Finalisation time   =      0.47 s
Total time          =  13514.41 s
Peak Memory Use     = 5724496 kB
  
Overall parallel efficiency rating: Poor (39%)                                  
  
Data was distributed by:-
G-vector (40-way); efficiency rating: Poor (40%)                                
