 +-------------------------------------------------+
 |                                                 |
 |      CCC   AA    SSS  TTTTT  EEEEE  PPPP        |
 |     C     A  A  S       T    E      P   P       |
 |     C     AAAA   SS     T    EEE    PPPP        |
 |     C     A  A     S    T    E      P           |
 |      CCC  A  A  SSS     T    EEEEE  P           |
 |                                                 |
 +-------------------------------------------------+
 |                                                 |
 | Welcome to Academic Release CASTEP version 20.11|          
 | Ab Initio Total Energy Program                  |
 |                                                 |
 | Authors:                                        |
 | M. Segall, M. Probert, C. Pickard, P. Hasnip,   |
 | S. Clark, K. Refson, J. R. Yates, M. Payne      |
 |                                                 |
 | Contributors:                                   |
 | P. Lindan, P. Haynes, J. White, V. Milman,      |
 | N. Govind, M. Gibson, P. Tulip, V. Cocula,      |
 | B. Montanari, D. Quigley, M. Glover,            |
 | L. Bernasconi, A. Perlov, M. Plummer,           |
 | E. McNellis, J. Meyer, J. Gale, D. Jochym       |
 | J. Aarons, B. Walker, R. Gillen, D. Jones       |
 | T. Green, I. J. Bush, C. J. Armstrong,          |
 | E. J. Higgins, E. L. Brown, M. S. McFly,        |
 | J. Wilkins, B-C. Shih, P. J. P. Byrne,          |
 | R. J. Maurer, J. C. Womack, J. Dziedzic,        |
 | J. R. Kermode, A. Bartok-Partay                 |
 |                                                 |
 | Copyright (c) 2000 - 2020                       |
 |                                                 |
 |     Distributed under license from Cambridge    |
 |     Enterprise for academic use only.           |
 |                                                 |
 | Please cite                                     |
 |                                                 |
 |     "First principles methods using CASTEP"     |
 |                                                 |
 |         Zeitschrift fuer Kristallographie       |
 |           220(5-6) pp. 567-570 (2005)           |
 |                                                 |
 | S. J. Clark, M. D. Segall, C. J. Pickard,       |
 | P. J. Hasnip, M. J. Probert, K. Refson,         |
 | M. C. Payne                                     |
 |                                                 |
 |       in all publications arising from          |
 |              your use of CASTEP                 |
 |                                                 |
 +-------------------------------------------------+
 |                                                 |
 |              http://www.castep.org              |
 |                                                 |
 +-------------------------------------------------+
 
 
 
 Compiled for linux_x86_64_ifort on Wed, 11 Aug 2021 06:51:56 -0700
 from code version e772bf432+  HEAD  Sat Apr 3 17:41:32 2021 +0100
 Compiler: Intel Fortran 2021.1; Optimisation: fast
 MATHLIBS: Intel MKL(2021.1-Product) (LAPACK version 3.9.0)
 FFT Lib : default
 Fundamental constants values: CODATA 2014
 
 Run started: Sun, 14 Jan 2024 17:11:54 -0800
 
 Atomic calculation performed for H: 1s1
 
 Converged in 41 iterations to an ae energy of -12.488 eV
 
   ============================================================                
   | Pseudopotential Report - Date of generation 14-01-2024   |                
   ------------------------------------------------------------                
   | Element: H Ionic charge:  1.00 Level of theory: PBE      |                
   | Atomic Solver: Koelling-Harmon                           |                
   |                                                          |                
   |               Reference Electronic Structure             |                
   |         Orbital         Occupation         Energy        |                
   |            1s              1.000           -0.239        |                
   |                                                          |                
   |                 Pseudopotential Definition               |                
   |        Beta     l      e      Rc     scheme   norm       |                
   |          1      0   -0.239   0.803     qc      1         |                
   |         loc     1    0.000   0.803     pn      0         |                
   |                                                          |                
   | No charge augmentation                                   |                
   | No partial core correction                               |                
   ------------------------------------------------------------                
   | "1|0.8|14|16|19|10N(qc=8)"                               |                
   ------------------------------------------------------------                
   |      Author: Chris J. Pickard, Cambridge University      |                
   ============================================================                
 
 Atomic calculation performed for O: 1s2 2s2 2p4
 
 Converged in 61 iterations to an ae energy of -2040.902 eV
 
   ============================================================                
   | Pseudopotential Report - Date of generation 14-01-2024   |                
   ------------------------------------------------------------                
   | Element: O Ionic charge:  6.00 Level of theory: PBE      |                
   | Atomic Solver: Koelling-Harmon                           |                
   |                                                          |                
   |               Reference Electronic Structure             |                
   |         Orbital         Occupation         Energy        |                
   |            2s              2.000           -0.881        |                
   |            2p              4.000           -0.332        |                
   |                                                          |                
   |                 Pseudopotential Definition               |                
   |        Beta     l      e      Rc     scheme   norm       |                
   |          1      0   -0.881   1.196     qc      1         |                
   |          2      0    0.250   1.196     qc      1         |                
   |          3      1   -0.332   1.196     qc      1         |                
   |          4      1    0.250   1.196     qc      1         |                
   |         loc     2    0.000   1.196     pn      0         |                
   |                                                          |                
   | No charge augmentation                                   |                
   | Partial core correction Rc = 0.842                       |                
   ------------------------------------------------------------                
   | "2|1.2|23|26|31|20NN:21NN(qc=9)"                         |                
   ------------------------------------------------------------                
   |      Author: Chris J. Pickard, Cambridge University      |                
   ============================================================                
 
 Atomic calculation performed for Na: 1s2 2s2 2p6 3s1
 
 Converged in 65 iterations to an ae energy of -4418.769 eV
 
   ============================================================                
   | Pseudopotential Report - Date of generation 14-01-2024   |                
   ------------------------------------------------------------                
   | Element: Na Ionic charge:  9.00 Level of theory: PBE     |                
   | Atomic Solver: Koelling-Harmon                           |                
   |                                                          |                
   |               Reference Electronic Structure             |                
   |         Orbital         Occupation         Energy        |                
   |            2s              2.000           -2.086        |                
   |            2p              6.000           -1.054        |                
   |            3s              1.000           -0.101        |                
   |                                                          |                
   |                 Pseudopotential Definition               |                
   |        Beta     l      e      Rc     scheme   norm       |                
   |          1      0   -2.086   1.495     qc      1         |                
   |          2      0   -0.101   1.495     qc      1         |                
   |          3      1   -1.054   1.495     qc      1         |                
   |         loc     2    0.000   1.495     pn      0         |                
   |                                                          |                
   | No charge augmentation                                   |                
   | Partial core correction Rc = 1.053                       |                
   ------------------------------------------------------------                
   | "2|1.5|20|23|26|20N:30N:21N(qc=8)"                       |                
   ------------------------------------------------------------                
   |      Author: Chris J. Pickard, Cambridge University      |                
   ============================================================                
 
 Atomic calculation performed for Ti: 1s2 2s2 2p6 3s2 3p6 3d2 4s2
 
 Converged in 79 iterations to an ae energy of -23226.658 eV
 
   ============================================================                
   | Pseudopotential Report - Date of generation 14-01-2024   |                
   ------------------------------------------------------------                
   | Element: Ti Ionic charge: 12.00 Level of theory: PBE     |                
   | Atomic Solver: Koelling-Harmon                           |                
   |                                                          |                
   |               Reference Electronic Structure             |                
   |         Orbital         Occupation         Energy        |                
   |            3s              2.000           -2.302        |                
   |            3p              6.000           -1.428        |                
   |            4s              2.000           -0.164        |                
   |            3d              2.000           -0.157        |                
   |                                                          |                
   |                 Pseudopotential Definition               |                
   |        Beta     l      e      Rc     scheme   norm       |                
   |          1      0   -2.302   1.793     qc      1         |                
   |          2      0   -0.164   1.793     qc      1         |                
   |          3      1   -1.428   1.793     qc      1         |                
   |          4      2   -0.157   1.793     qc      1         |                
   |         loc     3    0.000   1.793     pn      0         |                
   |                                                          |                
   | No charge augmentation                                   |                
   | Partial core correction Rc = 1.263                       |                
   ------------------------------------------------------------                
   | "3|1.8|15|17|19|30N:40N:31N:32N(qc=7)"                   |                
   ------------------------------------------------------------                
   |      Author: Chris J. Pickard, Cambridge University      |                
   ============================================================                
 
 Pseudo atomic calculation performed for H 1s1
 
 Converged in 22 iterations to a total energy of -12.4801 eV
 
 Pseudo atomic calculation performed for O 2s2 2p4
 
 Converged in 43 iterations to a total energy of -429.1989 eV
 
 Pseudo atomic calculation performed for Na 2s2 2p6 3s1
 
 Converged in 27 iterations to a total energy of -1230.2427 eV
 
 Pseudo atomic calculation performed for Ti 3s2 3p6 3d2 4s2
 
 Converged in 49 iterations to a total energy of -1577.3344 eV
 Calculation parallelised over 40 processes.
 Data is distributed by G-vector(40-way)

 ************************************ Title ************************************
 geo opt

 ***************************** General Parameters ******************************
  
 output verbosity                               : normal  (1)
 write checkpoint data to                       : Na4TiO8_w_water.check
 type of calculation                            : geometry optimization
 stress calculation                             : off
 density difference calculation                 : off
 electron localisation func (ELF) calculation   : off
 Hirshfeld analysis                             : off
 molecular orbital projected DOS                : off
 deltaSCF calculation                           : off
 unlimited duration calculation
 timing information                             : on
 memory usage estimate                          : on
 write extra output files                       : on
 write final potential to formatted file        : off
 write final density to formatted file          : off
 write structure in CELL formatted file         : on
 write BibTeX reference list                    : on
 write OTFG pseudopotential files               : on
 write electrostatic potential file             : on
 write bands file                               : on
 checkpoint writing                             : both castep_bin and check files
  
 output         length unit                     : A
 output           mass unit                     : amu
 output           time unit                     : ps
 output         charge unit                     : e
 output           spin unit                     : hbar/2
 output         energy unit                     : eV
 output          force unit                     : eV/A
 output       velocity unit                     : A/ps
 output       pressure unit                     : GPa
 output     inv_length unit                     : 1/A
 output      frequency unit                     : cm-1
 output force constant unit                     : eV/A**2
 output         volume unit                     : A**3
 output   IR intensity unit                     : (D/A)**2/amu
 output         dipole unit                     : D
 output         efield unit                     : eV/A/e
 output        entropy unit                     : J/mol/K
 output    efield chi2 unit                     : pm/V
  
 wavefunctions paging                           : none
 random number generator seed                   : randomised (171154389)
 data distribution                              : optimal for this architecture
 optimization strategy                          : maximize speed(+++)

 *********************** Exchange-Correlation Parameters ***********************
  
 using functional                               : Perdew Burke Ernzerhof
 relativistic treatment                         : Koelling-Harmon
 DFT+D: Semi-empirical dispersion correction    : off

 ************************* Pseudopotential Parameters **************************
  
 pseudopotential representation                 : reciprocal space
 <beta|phi> representation                      : reciprocal space
 spin-orbit coupling                            : off

 **************************** Basis Set Parameters *****************************
  
 plane wave basis set cut-off                   :   850.0000   eV
 size of standard grid                          :     1.7500
 size of   fine   gmax                          :    26.1388   1/A
 finite basis set correction                    : automatic
 number of sample energies                      :          3
           sample  spacing                      :     5.0000   eV

 **************************** Electronic Parameters ****************************
  
 number of  electrons                           :  480.0    
 net charge of system                           :  0.000    
 treating system as non-spin-polarized
 number of bands                                :        240
 electron temperature                           :     0.0000   K

 ********************* Electronic Minimization Parameters **********************
  
 Method: Treating system as non-metallic,
         and number of  SD  steps               :          1
         and number of  CG  steps               :          4
  
 total energy / atom convergence tol.           : 0.1000E-09   eV
 max force / atom convergence tol.              : ignored
 convergence tolerance window                   :          3   cycles
 max. number of SCF cycles                      :        250
 periodic dipole correction                     : NONE

 *********************** Population Analysis Parameters ************************
  
 Population analysis with cutoff                :  3.000       A
 Population analysis output                     : summary and pdos components

 ********************** Geometry Optimization Parameters ***********************
  
 optimization method                            : BFGS
 variable cell method                           : fixed basis quality
 max. number of steps                           :        300
 estimated bulk modulus                         :  500.0       GPa
 estimated <frequency>                          :  1668.       cm-1
 geom line minimiser                            : on
 with line minimiser tolerance                  :     0.4000
 total energy convergence tolerance             : 0.2000E-04   eV/atom
        max ionic |force| tolerance             : 0.1000E-02   eV/A
 max ionic |displacement| tolerance             : 0.1000E-02   A
   max |stress component| tolerance             : 0.1000       GPa
 convergence tolerance window                   :          2   steps
 backup results every                           :          5   steps
 write geom trajectory file                     : on

 *******************************************************************************
  
 
                           -------------------------------
                                      Unit Cell
                           -------------------------------
        Real Lattice(A)                      Reciprocal Lattice(1/A)
    12.1470000     0.0000000     0.0000000        0.517262312   0.000000000   0.166214189
     0.0000000     6.1547700     0.0000000        0.000000000   1.020864355   0.000000000
    -3.8711204     0.0000000    12.0470142        0.000000000   0.000000000   0.521555400
 
                       Lattice parameters(A)       Cell Angles
                    a =     12.147000          alpha =   90.000000
                    b =      6.154770          beta  =  107.814000
                    c =     12.653700          gamma =   90.000000
 
                       Current cell volume =           900.658769       A**3
                                   density =             1.429474   AMU/A**3
                                           =             2.373698     g/cm^3
 
                           -------------------------------
                                     Cell Contents
                           -------------------------------
                         Total number of ions in cell =   88
                      Total number of species in cell =    4
                        Max number of any one species =   44
 
            xxxxxxxxxxxxxxxxxxxxxxxxxxxxxxxxxxxxxxxxxxxxxxxxxxxxxxxxxxxx
            x  Element    Atom        Fractional coordinates of atoms  x
            x            Number           u          v          w      x
            x----------------------------------------------------------x
            x  H            1         0.090229   0.691505   0.075748   x 
            x  H            2         0.005982   0.250389   0.124472   x 
            x  H            3         0.063183   0.019554   0.149818   x 
            x  H            4         0.509887   0.433372   0.174677   x 
            x  H            5         0.105591   0.666882   0.207279   x 
            x  H            6         0.500694   0.902315   0.203254   x 
            x  H            7         0.499306   0.402315   0.296746   x 
            x  H            8         0.894409   0.166882   0.292721   x 
            x  H            9         0.490113   0.933372   0.325323   x 
            x  H           10         0.936817   0.519554   0.350182   x 
            x  H           11         0.994018   0.750389   0.375528   x 
            x  H           12         0.909771   0.191505   0.424252   x 
            x  H           13         0.090229   0.808495   0.575748   x 
            x  H           14         0.005982   0.249611   0.624472   x 
            x  H           15         0.063183   0.480446   0.649818   x 
            x  H           16         0.509887   0.066628   0.674677   x 
            x  H           17         0.105591   0.833118   0.707279   x 
            x  H           18         0.500694   0.597685   0.703254   x 
            x  H           19         0.499306   0.097685   0.796746   x 
            x  H           20         0.894409   0.333118   0.792721   x 
            x  H           21         0.490113   0.566628   0.825323   x 
            x  H           22         0.936817   0.980446   0.850182   x 
            x  H           23         0.994018   0.749611   0.875528   x 
            x  H           24         0.909771   0.308495   0.924252   x 
            x  O            1         0.854750   0.375220   0.031310   x 
            x  O            2         0.253020   0.512480   0.038740   x 
            x  O            3         0.299920   0.978050   0.063190   x 
            x  O            4         0.414020   0.875550   0.066230   x 
            x  O            5         0.600370   0.432460   0.094880   x 
            x  O            6         0.059880   0.738910   0.136700   x 
            x  O            7         0.701570   0.001100   0.158540   x 
            x  O            8         0.824470   0.054910   0.165440   x 
            x  O            9         0.075830   0.176200   0.167410   x 
            x  O           10         0.719400   0.464330   0.176360   x 
            x  O           11         0.454100   0.405980   0.216770   x 
            x  O           12         0.545900   0.905980   0.283230   x 
            x  O           13         0.280600   0.964330   0.323640   x 
            x  O           14         0.924170   0.676200   0.332590   x 
            x  O           15         0.175530   0.554910   0.334560   x 
            x  O           16         0.298430   0.501100   0.341460   x 
            x  O           17         0.940120   0.238910   0.363300   x 
            x  O           18         0.399630   0.932460   0.405120   x 
            x  O           19         0.585980   0.375550   0.433770   x 
            x  O           20         0.700080   0.478050   0.436810   x 
            x  O           21         0.746980   0.012480   0.461260   x 
            x  O           22         0.145250   0.875220   0.468690   x 
            x  O           23         0.854750   0.124780   0.531310   x 
            x  O           24         0.253020   0.987520   0.538740   x 
            x  O           25         0.299920   0.521950   0.563190   x 
            x  O           26         0.414020   0.624450   0.566230   x 
            x  O           27         0.600370   0.067540   0.594880   x 
            x  O           28         0.059880   0.761090   0.636700   x 
            x  O           29         0.701570   0.498900   0.658540   x 
            x  O           30         0.824470   0.445090   0.665440   x 
            x  O           31         0.075830   0.323800   0.667410   x 
            x  O           32         0.719400   0.035670   0.676360   x 
            x  O           33         0.454100   0.094020   0.716770   x 
            x  O           34         0.545900   0.594020   0.783230   x 
            x  O           35         0.280600   0.535670   0.823640   x 
            x  O           36         0.924170   0.823800   0.832590   x 
            x  O           37         0.175530   0.945090   0.834560   x 
            x  O           38         0.298430   0.998900   0.841460   x 
            x  O           39         0.940120   0.261090   0.863300   x 
            x  O           40         0.399630   0.567540   0.905120   x 
            x  O           41         0.585980   0.124450   0.933770   x 
            x  O           42         0.700080   0.021950   0.936810   x 
            x  O           43         0.746980   0.487520   0.961260   x 
            x  O           44         0.145250   0.624780   0.968690   x 
            x  Na           1         0.589320   0.766540   0.007830   x 
            x  Na           2         0.866080   0.702080   0.129080   x 
            x  Na           3         0.269250   0.243980   0.186570   x 
            x  Na           4         0.328380   0.716230   0.202980   x 
            x  Na           5         0.671620   0.216230   0.297020   x 
            x  Na           6         0.730750   0.743980   0.313430   x 
            x  Na           7         0.133920   0.202080   0.370920   x 
            x  Na           8         0.410680   0.266540   0.492170   x 
            x  Na           9         0.589320   0.733460   0.507830   x 
            x  Na          10         0.866080   0.797920   0.629080   x 
            x  Na          11         0.269250   0.256020   0.686570   x 
            x  Na          12         0.328380   0.783770   0.702980   x 
            x  Na          13         0.671620   0.283770   0.797020   x 
            x  Na          14         0.730750   0.756020   0.813430   x 
            x  Na          15         0.133920   0.297920   0.870920   x 
            x  Na          16         0.410680   0.233460   0.992170   x 
            x  Ti           1         0.717650   0.245040   0.057060   x 
            x  Ti           2         0.282350   0.745040   0.442940   x 
            x  Ti           3         0.717650   0.254960   0.557060   x 
            x  Ti           4         0.282350   0.754960   0.942940   x 
            xxxxxxxxxxxxxxxxxxxxxxxxxxxxxxxxxxxxxxxxxxxxxxxxxxxxxxxxxxxx
 
 
                         No user defined ionic velocities
 
                           -------------------------------
                                   Details of Species
                           -------------------------------
 
                               Mass of species in AMU
                                    H    1.0079400
                                    O   15.9994000
                                    Na   22.9897700
                                    Ti   47.8670000
 
                          Electric Quadrupole Moment (Barn)
                                    H    0.0028600 Isotope  2
                                    O   -0.0255800 Isotope 17
                                    Na    0.1040000 Isotope 23
                                    Ti    0.3020000 Isotope 47
 
                          Files used for pseudopotentials:
                                    H 1|0.8|14|16|19|10N(qc=8)
                                    O 2|1.2|23|26|31|20NN:21NN(qc=9)
                                    Na 2|1.5|20|23|26|20N:30N:21N(qc=8)
                                    Ti 3|1.8|15|17|19|30N:40N:31N:32N(qc=7)
 
                           -------------------------------
                              k-Points For BZ Sampling
                           -------------------------------
                       MP grid size for SCF calculation is  1  1  1
                            with an offset of   0.000  0.000  0.000
                       Number of kpoints used =             1
 
                           -------------------------------
                               Symmetry and Constraints
                           -------------------------------
 
                      Maximum deviation from symmetry = 0.390000E-07     ANG
 
 !-----------------------------------------------------------------------------!
 !                                                                             !
 !                     * * *      W A R N I N G     * * *                      !
 !                                                                             !
 !   Atomic positions are slightly inconsistent with symmetry operations,      !
 !   (although the discrepancy is lower than value of SYMMETRY_TOL).           !
  !   In severe cases this could lead to seriously inaccurate results.         !
 !                                                                             !
 !   It is recommended that symmetries are satisfied to a tolerance of 1e-8au  !
 !   or better. Consider one or more of the following:                         !
 !     - Adjust input so that atomic positions and symmetry are consistent.    !
 !     - Use SNAP_TO_SYMMETRY keyword in the cell file to adjust co-ordinates. !
 !     - Reduce the value of SYMMETRY_TOL in the cell file.                    !
 !     - Remove incorrect symmetry operations from .cell file.                 !
 !                                                                             !
 !-----------------------------------------------------------------------------!
 
 
                      Number of symmetry operations   =           4
                      Number of ionic constraints     =           3
                      Point group of crystal =     5: C2h, 2/m, 2/m
                      Space group of crystal =    14: P2_1/c, -P 2ybc
 
             Set iprint > 1 for details on symmetry rotations/translations
 
                         Centre of mass is constrained
             Set iprint > 1 for details of linear ionic constraints
 
                         Number of cell constraints= 2
                         Cell constraints are:  1 2 3 0 5 0
 
                         External pressure/stress (GPa)
                          0.00000   0.00000   0.00000
                                    0.00000   0.00000
                                              0.00000
  
+---------------- MEMORY AND SCRATCH DISK ESTIMATES PER PROCESS --------------+
|                                                     Memory          Disk    |
| Baseline code, static data and system overhead     5081.0 MB         0.0 MB |
| BLAS internal memory storage                          0.0 MB         0.0 MB |
| Model and support data                              118.0 MB         0.0 MB |
| Electronic energy minimisation requirements          30.1 MB         0.0 MB |
| Force calculation requirements                        2.1 MB         0.0 MB |
|                                               ----------------------------- |
| Approx. total storage required per process         5229.1 MB         0.0 MB |
|                                                                             |
| Requirements will fluctuate during execution and may exceed these estimates |
+-----------------------------------------------------------------------------+
Calculating finite basis set correction with  3 cut-off energies.
Calculating total energy with cut-off of  840.000 eV.
------------------------------------------------------------------------ <-- SCF
SCF loop      Energy                           Energy gain       Timer   <-- SCF
                                               per atom          (sec)   <-- SCF
------------------------------------------------------------------------ <-- SCF
Initial  -2.05894500E+003                                         13.23  <-- SCF
      1  -2.93729145E+004                    3.10386017E+002      16.74  <-- SCF
      2  -4.39367152E+004                    1.65497735E+002      20.30  <-- SCF
      3  -4.54472482E+004                    1.71651475E+001      23.66  <-- SCF
      4  -4.55969740E+004                    1.70142959E+000      26.54  <-- SCF
      5  -4.56262978E+004                    3.33225797E-001      29.49  <-- SCF
      6  -4.56344527E+004                    9.26685195E-002      32.43  <-- SCF
      7  -4.56363804E+004                    2.19065962E-002      35.33  <-- SCF
      8  -4.56367638E+004                    4.35569632E-003      38.65  <-- SCF
      9  -4.56368402E+004                    8.68181845E-004      41.93  <-- SCF
     10  -4.56368562E+004                    1.82445760E-004      44.84  <-- SCF
     11  -4.56368598E+004                    4.04511529E-005      47.78  <-- SCF
     12  -4.56368606E+004                    9.41591098E-006      50.77  <-- SCF
     13  -4.56368608E+004                    2.27505688E-006      53.64  <-- SCF
     14  -4.56368608E+004                    5.65885578E-007      56.57  <-- SCF
     15  -4.56368609E+004                    1.43605997E-007      59.45  <-- SCF
     16  -4.56368609E+004                    3.69757613E-008      62.32  <-- SCF
     17  -4.56368609E+004                    9.61427307E-009      65.21  <-- SCF
     18  -4.56368609E+004                    2.51774936E-009      68.13  <-- SCF
     19  -4.56368609E+004                    6.63009675E-010      71.02  <-- SCF
     20  -4.56368609E+004                    1.75068302E-010      73.90  <-- SCF
     21  -4.56368609E+004                    4.61927207E-011      76.79  <-- SCF
     22  -4.56368609E+004                    1.22336886E-011      79.65  <-- SCF
------------------------------------------------------------------------ <-- SCF
 
Final energy =  -45636.86086135     eV
(energy not corrected for finite basis set)
 
Calculating total energy with cut-off of  845.000 eV.
------------------------------------------------------------------------ <-- SCF
SCF loop      Energy                           Energy gain       Timer   <-- SCF
                                               per atom          (sec)   <-- SCF
------------------------------------------------------------------------ <-- SCF
Initial  -4.56368609E+004                                         81.10  <-- SCF
      1  -4.56374936E+004                    7.19024146E-003      83.96  <-- SCF
      2  -4.56374936E+004                    5.53078031E-008      86.82  <-- SCF
      3  -4.56374936E+004                    3.42409694E-009      89.69  <-- SCF
      4  -4.56374936E+004                    4.58130545E-010      92.56  <-- SCF
      5  -4.56374936E+004                    7.71987936E-011      95.45  <-- SCF
      6  -4.56374936E+004                    1.46241795E-011      98.31  <-- SCF
------------------------------------------------------------------------ <-- SCF
 
Final energy =  -45637.49360781     eV
(energy not corrected for finite basis set)
 
Calculating total energy with cut-off of  850.000 eV.
------------------------------------------------------------------------ <-- SCF
SCF loop      Energy                           Energy gain       Timer   <-- SCF
                                               per atom          (sec)   <-- SCF
------------------------------------------------------------------------ <-- SCF
Initial  -4.56374936E+004                                         99.69  <-- SCF
      1  -4.56380483E+004                    6.30359939E-003     102.59  <-- SCF
      2  -4.56380483E+004                    4.75669015E-008     105.47  <-- SCF
      3  -4.56380483E+004                    2.79771803E-009     108.36  <-- SCF
      4  -4.56380483E+004                    3.48027348E-010     111.23  <-- SCF
      5  -4.56380483E+004                    5.38563533E-011     114.10  <-- SCF
      6  -4.56380483E+004                    8.92918651E-012     117.16  <-- SCF
------------------------------------------------------------------------ <-- SCF
 
Final energy =  -45638.04832903     eV
(energy not corrected for finite basis set)
 
 For future reference: finite basis dEtot/dlog(Ecut) =    -104.150261eV
 Total energy corrected for finite basis set =  -45638.024968 eV
 
+---------------- MEMORY AND SCRATCH DISK ESTIMATES PER PROCESS --------------+
|                                                     Memory          Disk    |
| Model and support data                              139.9 MB         0.0 MB |
| Electronic energy minimisation requirements          30.1 MB         0.0 MB |
| Geometry minimisation requirements                   33.4 MB         0.0 MB |
|                                               ----------------------------- |
| Approx. total storage required per process          203.3 MB         0.0 MB |
|                                                                             |
| Requirements will fluctuate during execution and may exceed these estimates |
+-----------------------------------------------------------------------------+
 
 
 ******************************** Symmetrised Forces ********************************
 *                                                                                  *
 *                           Cartesian components (eV/A)                            *
 * -------------------------------------------------------------------------------- *
 *                         x                    y                    z              *
 *                                                                                  *
 * H               1      0.00051             -0.00040              0.00061         *
 * H               2      0.00010             -0.00005              0.00026         *
 * H               3     -0.00015             -0.00007             -0.00006         *
 * H               4      0.00038             -0.00022              0.00055         *
 * H               5      0.00053             -0.00022             -0.00043         *
 * H               6     -0.00036             -0.00003              0.00013         *
 * H               7      0.00036             -0.00003             -0.00013         *
 * H               8     -0.00053             -0.00022              0.00043         *
 * H               9     -0.00038             -0.00022             -0.00055         *
 * H              10      0.00015             -0.00007              0.00006         *
 * H              11     -0.00010             -0.00005             -0.00026         *
 * H              12     -0.00051             -0.00040             -0.00061         *
 * H              13      0.00051              0.00040              0.00061         *
 * H              14      0.00010              0.00005              0.00026         *
 * H              15     -0.00015              0.00007             -0.00006         *
 * H              16      0.00038              0.00022              0.00055         *
 * H              17      0.00053              0.00022             -0.00043         *
 * H              18     -0.00036              0.00003              0.00013         *
 * H              19      0.00036              0.00003             -0.00013         *
 * H              20     -0.00053              0.00022              0.00043         *
 * H              21     -0.00038              0.00022             -0.00055         *
 * H              22      0.00015              0.00007              0.00006         *
 * H              23     -0.00010              0.00005             -0.00026         *
 * H              24     -0.00051              0.00040             -0.00061         *
 * O               1     -0.04186              0.21377             -0.39956         *
 * O               2     -0.44604             -0.06213             -0.24982         *
 * O               3      0.44335             -0.00558              0.03866         *
 * O               4     -0.29349              0.25522              0.26475         *
 * O               5      0.12800              0.23905              0.42350         *
 * O               6      0.06422              0.12030             -0.05651         *
 * O               7      0.47927             -0.06803              0.01424         *
 * O               8     -0.33970             -0.17564              0.25486         *
 * O               9     -0.05096             -0.15121              0.03012         *
 * O              10     -0.38324              0.07132             -0.26444         *
 * O              11      0.04514             -0.01388             -0.00666         *
 * O              12     -0.04514             -0.01388              0.00666         *
 * O              13      0.38324              0.07132              0.26444         *
 * O              14      0.05096             -0.15121             -0.03012         *
 * O              15      0.33970             -0.17564             -0.25486         *
 * O              16     -0.47927             -0.06803             -0.01424         *
 * O              17     -0.06422              0.12030              0.05651         *
 * O              18     -0.12800              0.23905             -0.42350         *
 * O              19      0.29349              0.25522             -0.26475         *
 * O              20     -0.44335             -0.00558             -0.03866         *
 * O              21      0.44604             -0.06213              0.24982         *
 * O              22      0.04186              0.21377              0.39956         *
 * O              23     -0.04186             -0.21377             -0.39956         *
 * O              24     -0.44604              0.06213             -0.24982         *
 * O              25      0.44335              0.00558              0.03866         *
 * O              26     -0.29349             -0.25522              0.26475         *
 * O              27      0.12800             -0.23905              0.42350         *
 * O              28      0.06422             -0.12030             -0.05651         *
 * O              29      0.47927              0.06803              0.01424         *
 * O              30     -0.33970              0.17564              0.25486         *
 * O              31     -0.05096              0.15121              0.03012         *
 * O              32     -0.38324             -0.07132             -0.26444         *
 * O              33      0.04514              0.01388             -0.00666         *
 * O              34     -0.04514              0.01388              0.00666         *
 * O              35      0.38324             -0.07132              0.26444         *
 * O              36      0.05096              0.15121             -0.03012         *
 * O              37      0.33970              0.17564             -0.25486         *
 * O              38     -0.47927              0.06803             -0.01424         *
 * O              39     -0.06422             -0.12030              0.05651         *
 * O              40     -0.12800             -0.23905             -0.42350         *
 * O              41      0.29349             -0.25522             -0.26475         *
 * O              42     -0.44335              0.00558             -0.03866         *
 * O              43      0.44604              0.06213              0.24982         *
 * O              44      0.04186             -0.21377              0.39956         *
 * Na              1      0.00020              0.03654             -0.01120         *
 * Na              2      0.04570             -0.00777              0.01402         *
 * Na              3      0.00965             -0.00619             -0.03105         *
 * Na              4      0.02205             -0.03020             -0.00653         *
 * Na              5     -0.02205             -0.03020              0.00653         *
 * Na              6     -0.00965             -0.00619              0.03105         *
 * Na              7     -0.04570             -0.00777             -0.01402         *
 * Na              8     -0.00020              0.03654              0.01120         *
 * Na              9      0.00020             -0.03654             -0.01120         *
 * Na             10      0.04570              0.00777              0.01402         *
 * Na             11      0.00965              0.00619             -0.03105         *
 * Na             12      0.02205              0.03020             -0.00653         *
 * Na             13     -0.02205              0.03020              0.00653         *
 * Na             14     -0.00965              0.00619              0.03105         *
 * Na             15     -0.04570              0.00777             -0.01402         *
 * Na             16     -0.00020             -0.03654              0.01120         *
 * Ti              1     -0.06149             -0.03751              0.09814         *
 * Ti              2      0.06149             -0.03751             -0.09814         *
 * Ti              3     -0.06149              0.03751              0.09814         *
 * Ti              4      0.06149              0.03751             -0.09814         *
 *                                                                                  *
 ************************************************************************************
 
 *********** Symmetrised Stress Tensor ***********
 *                                               *
 *          Cartesian components (GPa)           *
 * --------------------------------------------- *
 *             x             y             z     *
 *                                               *
 *  x     -2.173722      0.000000      0.086167  *
 *  y      0.000000     -4.292420      0.000000  *
 *  z      0.086167      0.000000     -2.086143  *
 *                                               *
 *  Pressure:    2.8508                          *
 *                                               *
 *************************************************
 BFGS: finished iteration     0 with enthalpy= -4.56380250E+004 eV
  
 +-----------+-----------------+-----------------+------------+-----+ <-- BFGS
 | Parameter |      value      |    tolerance    |    units   | OK? | <-- BFGS
 +-----------+-----------------+-----------------+------------+-----+ <-- BFGS
 |  dE/ion   |   0.000000E+000 |   2.000000E-005 |         eV | No  | <-- BFGS
 |  |F|max   |   5.149920E-001 |   1.000000E-003 |       eV/A | No  | <-- BFGS
 |  |dR|max  |   0.000000E+000 |   1.000000E-003 |          A | No  | <-- BFGS
 |   Smax    |   4.292420E+000 |   1.000000E-001 |        GPa | No  | <-- BFGS
 +-----------+-----------------+-----------------+------------+-----+ <-- BFGS
  

================================================================================
 Starting BFGS iteration          1 ...
================================================================================
  
 +------------+-------------+-------------+-----------------+ <-- min BFGS
 |    Step    |   lambda    |   F.delta'  |    enthalpy     | <-- min BFGS
 +------------+-------------+-------------+-----------------+ <-- min BFGS
 |  previous  |    0.000000 |    1.428344 |   -45638.024968 | <-- min BFGS
 +------------+-------------+-------------+-----------------+ <-- min BFGS
  

--------------------------------------------------------------------------------
 BFGS: starting iteration         1 with trial guess (lambda=  1.000000)
--------------------------------------------------------------------------------
 
+---------------- MEMORY AND SCRATCH DISK ESTIMATES PER PROCESS --------------+
|                                                     Memory          Disk    |
| Model and support data                              139.9 MB         0.0 MB |
| Electronic energy minimisation requirements          30.1 MB         0.0 MB |
| Geometry minimisation requirements                   33.5 MB         0.0 MB |
|                                               ----------------------------- |
| Approx. total storage required per process          203.5 MB         0.0 MB |
|                                                                             |
| Requirements will fluctuate during execution and may exceed these estimates |
+-----------------------------------------------------------------------------+
 
 
                           -------------------------------
                                      Unit Cell
                           -------------------------------
        Real Lattice(A)              Reciprocal Lattice(1/A)
    12.1646028     0.0000000    -0.0006978        0.516523330   0.000000000   0.166012976
     0.0000000     6.1723826     0.0000000        0.000000000   1.017951372   0.000000000
    -3.8774223     0.0000000    12.0639911        0.000029876   0.000000000   0.520831050
 
                       Lattice parameters(A)       Cell Angles
                    a =     12.164603          alpha =   90.000000
                    b =      6.172383          beta  =  107.820931
                    c =     12.671791          gamma =   90.000000
 
                Current cell volume =           905.803033 A**3
                            density =             1.421356 amu/A**3
                                    =             2.360217 g/cm^3
 
                           -------------------------------
                                     Cell Contents
                           -------------------------------
 
            xxxxxxxxxxxxxxxxxxxxxxxxxxxxxxxxxxxxxxxxxxxxxxxxxxxxxxxxxxxxxxxxx
            x  Element         Atom        Fractional coordinates of atoms  x
            x                 Number           u          v          w      x
            x---------------------------------------------------------------x
            x  H                 1         0.090230   0.691505   0.075748   x
            x  H                 2         0.005983   0.250389   0.124472   x
            x  H                 3         0.063183   0.019553   0.149818   x
            x  H                 4         0.509887   0.433372   0.174677   x
            x  H                 5         0.105591   0.666882   0.207278   x
            x  H                 6         0.500693   0.902315   0.203254   x
            x  H                 7         0.499307   0.402315   0.296746   x
            x  H                 8         0.894409   0.166882   0.292722   x
            x  H                 9         0.490113   0.933372   0.325323   x
            x  H                10         0.936817   0.519553   0.350182   x
            x  H                11         0.994017   0.750389   0.375528   x
            x  H                12         0.909770   0.191505   0.424252   x
            x  H                13         0.090230   0.808495   0.575748   x
            x  H                14         0.005983   0.249611   0.624472   x
            x  H                15         0.063183   0.480447   0.649818   x
            x  H                16         0.509887   0.066628   0.674677   x
            x  H                17         0.105591   0.833118   0.707278   x
            x  H                18         0.500693   0.597685   0.703254   x
            x  H                19         0.499307   0.097685   0.796746   x
            x  H                20         0.894409   0.333118   0.792722   x
            x  H                21         0.490113   0.566628   0.825323   x
            x  H                22         0.936817   0.980447   0.850182   x
            x  H                23         0.994017   0.749611   0.875528   x
            x  H                24         0.909770   0.308495   0.924252   x
            x  O                 1         0.854656   0.375452   0.031088   x
            x  O                 2         0.252730   0.512413   0.038601   x
            x  O                 3         0.300171   0.978044   0.063211   x
            x  O                 4         0.413905   0.875827   0.066377   x
            x  O                 5         0.600515   0.432720   0.095115   x
            x  O                 6         0.059905   0.739041   0.136669   x
            x  O                 7         0.701836   0.001026   0.158548   x
            x  O                 8         0.824328   0.054719   0.165581   x
            x  O                 9         0.075807   0.176036   0.167427   x
            x  O                10         0.719142   0.464407   0.176213   x
            x  O                11         0.454124   0.405965   0.216766   x
            x  O                12         0.545876   0.905965   0.283234   x
            x  O                13         0.280858   0.964407   0.323787   x
            x  O                14         0.924193   0.676036   0.332573   x
            x  O                15         0.175672   0.554719   0.334419   x
            x  O                16         0.298164   0.501026   0.341452   x
            x  O                17         0.940095   0.239041   0.363331   x
            x  O                18         0.399485   0.932720   0.404885   x
            x  O                19         0.586095   0.375827   0.433623   x
            x  O                20         0.699829   0.478044   0.436789   x
            x  O                21         0.747270   0.012413   0.461399   x
            x  O                22         0.145344   0.875452   0.468912   x
            x  O                23         0.854656   0.124548   0.531088   x
            x  O                24         0.252730   0.987587   0.538601   x
            x  O                25         0.300171   0.521956   0.563211   x
            x  O                26         0.413905   0.624173   0.566377   x
            x  O                27         0.600515   0.067280   0.595115   x
            x  O                28         0.059905   0.760959   0.636669   x
            x  O                29         0.701836   0.498974   0.658548   x
            x  O                30         0.824328   0.445281   0.665581   x
            x  O                31         0.075807   0.323964   0.667427   x
            x  O                32         0.719142   0.035593   0.676213   x
            x  O                33         0.454124   0.094035   0.716766   x
            x  O                34         0.545876   0.594035   0.783234   x
            x  O                35         0.280858   0.535593   0.823787   x
            x  O                36         0.924193   0.823964   0.832573   x
            x  O                37         0.175672   0.945281   0.834419   x
            x  O                38         0.298164   0.998974   0.841452   x
            x  O                39         0.940095   0.260959   0.863331   x
            x  O                40         0.399485   0.567280   0.904885   x
            x  O                41         0.586095   0.124173   0.933623   x
            x  O                42         0.699829   0.021956   0.936789   x
            x  O                43         0.747270   0.487587   0.961399   x
            x  O                44         0.145344   0.624548   0.968912   x
            x  Na                1         0.589318   0.766580   0.007824   x
            x  Na                2         0.866108   0.702072   0.129088   x
            x  Na                3         0.269250   0.243973   0.186553   x
            x  Na                4         0.328391   0.716197   0.202976   x
            x  Na                5         0.671609   0.216197   0.297024   x
            x  Na                6         0.730750   0.743973   0.313447   x
            x  Na                7         0.133892   0.202072   0.370912   x
            x  Na                8         0.410682   0.266580   0.492176   x
            x  Na                9         0.589318   0.733420   0.507824   x
            x  Na               10         0.866108   0.797928   0.629088   x
            x  Na               11         0.269250   0.256027   0.686553   x
            x  Na               12         0.328391   0.783803   0.702976   x
            x  Na               13         0.671609   0.283803   0.797024   x
            x  Na               14         0.730750   0.756027   0.813447   x
            x  Na               15         0.133892   0.297928   0.870912   x
            x  Na               16         0.410682   0.233420   0.992176   x
            x  Ti                1         0.717634   0.244999   0.057114   x
            x  Ti                2         0.282366   0.744999   0.442886   x
            x  Ti                3         0.717634   0.255001   0.557114   x
            x  Ti                4         0.282366   0.755001   0.942886   x
            xxxxxxxxxxxxxxxxxxxxxxxxxxxxxxxxxxxxxxxxxxxxxxxxxxxxxxxxxxxxxxxxx
 
 
------------------------------------------------------------------------ <-- SCF
SCF loop      Energy                           Energy gain       Timer   <-- SCF
                                               per atom          (sec)   <-- SCF
------------------------------------------------------------------------ <-- SCF
Initial  -4.56365572E+004                                        119.97  <-- SCF
      1  -4.56381986E+004                    1.86514113E-002     122.90  <-- SCF
      2  -4.56381992E+004                    7.71633215E-006     125.81  <-- SCF
      3  -4.56381993E+004                    5.61638871E-007     128.68  <-- SCF
      4  -4.56381993E+004                    7.04568359E-008     131.62  <-- SCF
      5  -4.56381993E+004                    1.23118717E-008     134.51  <-- SCF
      6  -4.56381993E+004                    2.46649442E-009     137.40  <-- SCF
      7  -4.56381993E+004                    5.45594388E-010     140.29  <-- SCF
      8  -4.56381993E+004                    1.26836634E-010     143.21  <-- SCF
      9  -4.56381993E+004                    3.12169985E-011     146.12  <-- SCF
     10  -4.56381993E+004                    7.80424962E-012     149.00  <-- SCF
------------------------------------------------------------------------ <-- SCF
 
Final energy =  -45638.19929100     eV
(energy not corrected for finite basis set)
 
 
 ******************************** Symmetrised Forces ********************************
 *                                                                                  *
 *                           Cartesian components (eV/A)                            *
 * -------------------------------------------------------------------------------- *
 *                         x                    y                    z              *
 *                                                                                  *
 * H               1     -0.02225              0.01349              0.03302         *
 * H               2      0.06187             -0.05504              0.04576         *
 * H               3     -0.00138              0.06856              0.00831         *
 * H               4     -0.03180             -0.00875              0.02783         *
 * H               5     -0.01689              0.03454             -0.06648         *
 * H               6      0.00295              0.00187              0.04886         *
 * H               7     -0.00295              0.00187             -0.04886         *
 * H               8      0.01689              0.03454              0.06648         *
 * H               9      0.03180             -0.00875             -0.02783         *
 * H              10      0.00138              0.06856             -0.00831         *
 * H              11     -0.06187             -0.05504             -0.04576         *
 * H              12      0.02225              0.01349             -0.03302         *
 * H              13     -0.02225             -0.01349              0.03302         *
 * H              14      0.06187              0.05504              0.04576         *
 * H              15     -0.00138             -0.06856              0.00831         *
 * H              16     -0.03180              0.00875              0.02783         *
 * H              17     -0.01689             -0.03454             -0.06648         *
 * H              18      0.00295             -0.00187              0.04886         *
 * H              19     -0.00295             -0.00187             -0.04886         *
 * H              20      0.01689             -0.03454              0.06648         *
 * H              21      0.03180              0.00875             -0.02783         *
 * H              22      0.00138             -0.06856             -0.00831         *
 * H              23     -0.06187              0.05504             -0.04576         *
 * H              24      0.02225             -0.01349             -0.03302         *
 * O               1     -0.06025              0.16403             -0.35193         *
 * O               2     -0.37800             -0.03667             -0.24116         *
 * O               3      0.39088             -0.02076              0.01121         *
 * O               4     -0.25982              0.21128              0.22449         *
 * O               5      0.11160              0.20220              0.35625         *
 * O               6      0.10294              0.07563             -0.01459         *
 * O               7      0.41829             -0.03928             -0.00157         *
 * O               8     -0.29568             -0.12998              0.22057         *
 * O               9     -0.10383             -0.17278             -0.02006         *
 * O              10     -0.32065              0.03870             -0.24363         *
 * O              11      0.07982             -0.00712              0.01710         *
 * O              12     -0.07982             -0.00712             -0.01710         *
 * O              13      0.32065              0.03870              0.24363         *
 * O              14      0.10383             -0.17278              0.02006         *
 * O              15      0.29568             -0.12998             -0.22057         *
 * O              16     -0.41829             -0.03928              0.00157         *
 * O              17     -0.10294              0.07563              0.01459         *
 * O              18     -0.11160              0.20220             -0.35625         *
 * O              19      0.25982              0.21128             -0.22449         *
 * O              20     -0.39088             -0.02076             -0.01121         *
 * O              21      0.37800             -0.03667              0.24116         *
 * O              22      0.06025              0.16403              0.35193         *
 * O              23     -0.06025             -0.16403             -0.35193         *
 * O              24     -0.37800              0.03667             -0.24116         *
 * O              25      0.39088              0.02076              0.01121         *
 * O              26     -0.25982             -0.21128              0.22449         *
 * O              27      0.11160             -0.20220              0.35625         *
 * O              28      0.10294             -0.07563             -0.01459         *
 * O              29      0.41829              0.03928             -0.00157         *
 * O              30     -0.29568              0.12998              0.22057         *
 * O              31     -0.10383              0.17278             -0.02006         *
 * O              32     -0.32065             -0.03870             -0.24363         *
 * O              33      0.07982              0.00712              0.01710         *
 * O              34     -0.07982              0.00712             -0.01710         *
 * O              35      0.32065             -0.03870              0.24363         *
 * O              36      0.10383              0.17278              0.02006         *
 * O              37      0.29568              0.12998             -0.22057         *
 * O              38     -0.41829              0.03928              0.00157         *
 * O              39     -0.10294             -0.07563              0.01459         *
 * O              40     -0.11160             -0.20220             -0.35625         *
 * O              41      0.25982             -0.21128             -0.22449         *
 * O              42     -0.39088              0.02076             -0.01121         *
 * O              43      0.37800              0.03667              0.24116         *
 * O              44      0.06025             -0.16403              0.35193         *
 * Na              1     -0.00030              0.03646             -0.00675         *
 * Na              2      0.04609             -0.01017              0.01428         *
 * Na              3      0.01078             -0.00811             -0.03264         *
 * Na              4      0.01962             -0.03529             -0.00949         *
 * Na              5     -0.01962             -0.03529              0.00949         *
 * Na              6     -0.01078             -0.00811              0.03264         *
 * Na              7     -0.04609             -0.01017             -0.01428         *
 * Na              8      0.00030              0.03646              0.00675         *
 * Na              9     -0.00030             -0.03646             -0.00675         *
 * Na             10      0.04609              0.01017              0.01428         *
 * Na             11      0.01078              0.00811             -0.03264         *
 * Na             12      0.01962              0.03529             -0.00949         *
 * Na             13     -0.01962              0.03529              0.00949         *
 * Na             14     -0.01078              0.00811              0.03264         *
 * Na             15     -0.04609              0.01017             -0.01428         *
 * Na             16      0.00030             -0.03646              0.00675         *
 * Ti              1     -0.03820             -0.02518              0.08348         *
 * Ti              2      0.03820             -0.02518             -0.08348         *
 * Ti              3     -0.03820              0.02518              0.08348         *
 * Ti              4      0.03820              0.02518             -0.08348         *
 *                                                                                  *
 ************************************************************************************
 
 *********** Symmetrised Stress Tensor ***********
 *                                               *
 *          Cartesian components (GPa)           *
 * --------------------------------------------- *
 *             x             y             z     *
 *                                               *
 *  x     -2.011215      0.000000     -0.045902  *
 *  y      0.000000     -3.684504      0.000000  *
 *  z     -0.045902      0.000000     -1.607981  *
 *                                               *
 *  Pressure:    2.4346                          *
 *                                               *
 *************************************************
  
 +------------+-------------+-------------+-----------------+ <-- min BFGS
 |    Step    |   lambda    |   F.delta'  |    enthalpy     | <-- min BFGS
 +------------+-------------+-------------+-----------------+ <-- min BFGS
 |  previous  |    0.000000 |    1.428344 |   -45638.024968 | <-- min BFGS
 | trial step |    1.000000 |    1.229136 |   -45638.145401 | <-- min BFGS
 +------------+-------------+-------------+-----------------+ <-- min BFGS
  

--------------------------------------------------------------------------------
 BFGS: improving iteration         1 with line minimization (lambda=  7.170114)
--------------------------------------------------------------------------------
 
+---------------- MEMORY AND SCRATCH DISK ESTIMATES PER PROCESS --------------+
|                                                     Memory          Disk    |
| Model and support data                              140.4 MB         0.0 MB |
| Electronic energy minimisation requirements          30.7 MB         0.0 MB |
| Geometry minimisation requirements                   34.1 MB         0.0 MB |
|                                               ----------------------------- |
| Approx. total storage required per process          205.1 MB         0.0 MB |
|                                                                             |
| Requirements will fluctuate during execution and may exceed these estimates |
+-----------------------------------------------------------------------------+
 
 
                           -------------------------------
                                      Unit Cell
                           -------------------------------
        Real Lattice(A)              Reciprocal Lattice(1/A)
    12.2732141     0.0000000    -0.0050032        0.512010114   0.000000000   0.164781887
     0.0000000     6.2810541     0.0000000        0.000000000   1.000339300   0.000000000
    -3.9163055     0.0000000    12.1687405        0.000210513   0.000000000   0.516405927
 
                       Lattice parameters(A)       Cell Angles
                    a =     12.273215          alpha =   90.000000
                    b =      6.281054          beta  =  107.863259
                    c =     12.783415          gamma =   90.000000
 
                Current cell volume =           937.949588 A**3
                            density =             1.372641 amu/A**3
                                    =             2.279325 g/cm^3
 
                           -------------------------------
                                     Cell Contents
                           -------------------------------
 
            xxxxxxxxxxxxxxxxxxxxxxxxxxxxxxxxxxxxxxxxxxxxxxxxxxxxxxxxxxxxxxxxx
            x  Element         Atom        Fractional coordinates of atoms  x
            x                 Number           u          v          w      x
            x---------------------------------------------------------------x
            x  H                 1         0.090232   0.691502   0.075751   x
            x  H                 2         0.005983   0.250389   0.124473   x
            x  H                 3         0.063183   0.019553   0.149817   x
            x  H                 4         0.509889   0.433370   0.174679   x
            x  H                 5         0.105592   0.666880   0.207277   x
            x  H                 6         0.500692   0.902315   0.203254   x
            x  H                 7         0.499308   0.402315   0.296746   x
            x  H                 8         0.894408   0.166880   0.292723   x
            x  H                 9         0.490111   0.933370   0.325321   x
            x  H                10         0.936817   0.519553   0.350183   x
            x  H                11         0.994017   0.750389   0.375527   x
            x  H                12         0.909768   0.191502   0.424249   x
            x  H                13         0.090232   0.808498   0.575751   x
            x  H                14         0.005983   0.249611   0.624473   x
            x  H                15         0.063183   0.480447   0.649817   x
            x  H                16         0.509889   0.066630   0.674679   x
            x  H                17         0.105592   0.833120   0.707277   x
            x  H                18         0.500692   0.597685   0.703254   x
            x  H                19         0.499308   0.097685   0.796746   x
            x  H                20         0.894408   0.333120   0.792723   x
            x  H                21         0.490111   0.566630   0.825321   x
            x  H                22         0.936817   0.980447   0.850183   x
            x  H                23         0.994017   0.749611   0.875527   x
            x  H                24         0.909768   0.308498   0.924249   x
            x  O                 1         0.854078   0.376884   0.029721   x
            x  O                 2         0.250944   0.511996   0.037746   x
            x  O                 3         0.301718   0.978007   0.063344   x
            x  O                 4         0.413198   0.877537   0.067283   x
            x  O                 5         0.601412   0.434321   0.096564   x
            x  O                 6         0.060062   0.739846   0.136475   x
            x  O                 7         0.703478   0.000570   0.158597   x
            x  O                 8         0.823453   0.053543   0.166454   x
            x  O                 9         0.075667   0.175023   0.167530   x
            x  O                10         0.717553   0.464885   0.175308   x
            x  O                11         0.454270   0.405872   0.216744   x
            x  O                12         0.545730   0.905872   0.283256   x
            x  O                13         0.282447   0.964885   0.324692   x
            x  O                14         0.924333   0.675023   0.332470   x
            x  O                15         0.176547   0.553543   0.333546   x
            x  O                16         0.296522   0.500570   0.341403   x
            x  O                17         0.939938   0.239846   0.363525   x
            x  O                18         0.398588   0.934321   0.403436   x
            x  O                19         0.586802   0.377537   0.432717   x
            x  O                20         0.698282   0.478007   0.436656   x
            x  O                21         0.749056   0.011996   0.462254   x
            x  O                22         0.145922   0.876884   0.470279   x
            x  O                23         0.854078   0.123116   0.529721   x
            x  O                24         0.250944   0.988004   0.537746   x
            x  O                25         0.301718   0.521993   0.563344   x
            x  O                26         0.413198   0.622463   0.567283   x
            x  O                27         0.601412   0.065679   0.596564   x
            x  O                28         0.060062   0.760154   0.636475   x
            x  O                29         0.703478   0.499430   0.658597   x
            x  O                30         0.823453   0.446457   0.666454   x
            x  O                31         0.075667   0.324977   0.667530   x
            x  O                32         0.717553   0.035115   0.675308   x
            x  O                33         0.454270   0.094128   0.716744   x
            x  O                34         0.545730   0.594128   0.783256   x
            x  O                35         0.282447   0.535115   0.824692   x
            x  O                36         0.924333   0.824977   0.832470   x
            x  O                37         0.176547   0.946457   0.833546   x
            x  O                38         0.296522   0.999430   0.841403   x
            x  O                39         0.939938   0.260154   0.863525   x
            x  O                40         0.398588   0.565679   0.903436   x
            x  O                41         0.586802   0.122463   0.932717   x
            x  O                42         0.698282   0.021993   0.936656   x
            x  O                43         0.749056   0.488004   0.962254   x
            x  O                44         0.145922   0.623116   0.970279   x
            x  Na                1         0.589307   0.766824   0.007785   x
            x  Na                2         0.866278   0.702020   0.129136   x
            x  Na                3         0.269249   0.243932   0.186447   x
            x  Na                4         0.328459   0.715995   0.202954   x
            x  Na                5         0.671541   0.215995   0.297046   x
            x  Na                6         0.730751   0.743932   0.313553   x
            x  Na                7         0.133722   0.202019   0.370864   x
            x  Na                8         0.410693   0.266824   0.492215   x
            x  Na                9         0.589307   0.733176   0.507785   x
            x  Na               10         0.866278   0.797981   0.629136   x
            x  Na               11         0.269249   0.256068   0.686447   x
            x  Na               12         0.328459   0.784005   0.702954   x
            x  Na               13         0.671541   0.284005   0.797046   x
            x  Na               14         0.730751   0.756068   0.813553   x
            x  Na               15         0.133722   0.297981   0.870864   x
            x  Na               16         0.410693   0.233176   0.992215   x
            x  Ti                1         0.717532   0.244748   0.057450   x
            x  Ti                2         0.282468   0.744748   0.442550   x
            x  Ti                3         0.717532   0.255252   0.557450   x
            x  Ti                4         0.282468   0.755252   0.942550   x
            xxxxxxxxxxxxxxxxxxxxxxxxxxxxxxxxxxxxxxxxxxxxxxxxxxxxxxxxxxxxxxxxx
 
 
------------------------------------------------------------------------ <-- SCF
SCF loop      Energy                           Energy gain       Timer   <-- SCF
                                               per atom          (sec)   <-- SCF
------------------------------------------------------------------------ <-- SCF
Initial  -4.55896918E+004                                        151.78  <-- SCF
      1  -4.56383379E+004                    5.52797363E-001     154.70  <-- SCF
      2  -4.56383657E+004                    3.15746810E-004     157.61  <-- SCF
      3  -4.56383677E+004                    2.27690982E-005     160.52  <-- SCF
      4  -4.56383680E+004                    2.92631491E-006     163.49  <-- SCF
      5  -4.56383680E+004                    5.57034152E-007     166.37  <-- SCF
      6  -4.56383680E+004                    1.24915944E-007     169.31  <-- SCF
      7  -4.56383680E+004                    3.11980152E-008     172.24  <-- SCF
      8  -4.56383680E+004                    8.17730682E-009     175.16  <-- SCF
      9  -4.56383680E+004                    2.20663400E-009     178.06  <-- SCF
     10  -4.56383680E+004                    6.03809872E-010     180.97  <-- SCF
     11  -4.56383680E+004                    1.66842201E-010     183.91  <-- SCF
     12  -4.56383680E+004                    4.62630293E-011     186.83  <-- SCF
     13  -4.56383680E+004                    1.32180084E-011     189.74  <-- SCF
------------------------------------------------------------------------ <-- SCF
 
Final energy =  -45638.36804643     eV
(energy not corrected for finite basis set)
 
 
 ******************************** Symmetrised Forces ********************************
 *                                                                                  *
 *                           Cartesian components (eV/A)                            *
 * -------------------------------------------------------------------------------- *
 *                         x                    y                    z              *
 *                                                                                  *
 * H               1     -0.16107              0.09766              0.22697         *
 * H               2      0.42272             -0.38851              0.31533         *
 * H               3     -0.01037              0.47023              0.05755         *
 * H               4     -0.22267             -0.05949              0.19194         *
 * H               5     -0.11739              0.24031             -0.45205         *
 * H               6      0.02130              0.01298              0.33787         *
 * H               7     -0.02130              0.01298             -0.33787         *
 * H               8      0.11739              0.24031              0.45205         *
 * H               9      0.22267             -0.05949             -0.19194         *
 * H              10      0.01037              0.47023             -0.05755         *
 * H              11     -0.42272             -0.38851             -0.31533         *
[...]
              O 5  -- Ti 1                   0.19        2.03295
              O 25 -- Ti 2                   0.26        2.03688
              O 20 -- Ti 3                   0.26        2.03688
              O 3  -- Ti 4                   0.26        2.03688
              O 42 -- Ti 1                   0.26        2.03688
              O 24 -- Ti 2                   0.22        2.06757
              O 21 -- Ti 3                   0.22        2.06757
              O 2  -- Ti 4                   0.22        2.06757
              O 43 -- Ti 1                   0.22        2.06757
              H 3  -- H 5                   -0.01        2.23957
              H 20 -- H 22                  -0.01        2.23957
              H 15 -- H 17                  -0.01        2.23957
              H 8  -- H 10                  -0.01        2.23957
              H 1  -- H 3                   -0.02        2.24406
              H 22 -- H 24                  -0.02        2.24406
              H 13 -- H 15                  -0.02        2.24406
              H 10 -- H 12                  -0.02        2.24406
              H 14 -- O 23                   0.01        2.28714
              H 23 -- O 44                   0.01        2.28714
              H 11 -- O 22                   0.01        2.28714
              H 2  -- O 1                    0.01        2.28714
              O 38 -- Na 12                  0.07        2.32495
              O 16 -- Na 4                   0.07        2.32495
              O 29 -- Na 13                  0.07        2.32495
              O 7  -- Na 5                   0.07        2.32495
              O 27 -- Na 9                   0.18        2.38141
              O 18 -- Na 8                   0.18        2.38141
              O 5  -- Na 1                   0.18        2.38141
              O 40 -- Na 16                  0.18        2.38141
              O 42 -- Na 13                 -0.02        2.38828
              O 3  -- Na 4                  -0.02        2.38828
              O 25 -- Na 12                 -0.02        2.38828
              O 20 -- Na 5                  -0.02        2.38828
              O 21 -- Na 5                   0.02        2.39471
              O 2  -- Na 4                   0.02        2.39471
              O 43 -- Na 13                  0.02        2.39471
              O 24 -- Na 12                  0.02        2.39471
              O 3  -- Na 16                 -0.02        2.40835
              O 42 -- Na 1                  -0.02        2.40835
              O 20 -- Na 9                  -0.02        2.40835
              O 25 -- Na 8                  -0.02        2.40835
              O 22 -- Na 7                   0.06        2.40902
              O 23 -- Na 10                  0.06        2.40902
              O 1  -- Na 2                   0.06        2.40902
              O 44 -- Na 15                  0.06        2.40902
              O 35 -- Na 12                  0.02        2.41086
              O 32 -- Na 13                  0.02        2.41086
              O 13 -- Na 4                   0.02        2.41086
              O 10 -- Na 5                   0.02        2.41086
              O 42 -- Na 14                  0.11        2.42050
              O 3  -- Na 3                   0.11        2.42050
              O 20 -- Na 6                   0.11        2.42050
              O 25 -- Na 11                  0.11        2.42050
              O 41 -- Na 13                 -0.02        2.42593
              O 4  -- Na 4                  -0.02        2.42593
              O 19 -- Na 5                  -0.02        2.42593
              O 26 -- Na 12                 -0.02        2.42593
              O 36 -- Na 10                  0.06        2.43076
              O 31 -- Na 15                  0.06        2.43076
              O 9  -- Na 7                   0.06        2.43076
              O 14 -- Na 2                   0.06        2.43076
              O 31 -- Na 11                  0.05        2.43404
              O 9  -- Na 3                   0.05        2.43404
              O 14 -- Na 6                   0.05        2.43404
              O 36 -- Na 14                  0.05        2.43404
              O 39 -- Na 15                  0.06        2.43486
              O 28 -- Na 10                  0.06        2.43486
              O 6  -- Na 2                   0.06        2.43486
              O 17 -- Na 7                   0.06        2.43486
              O 37 -- Na 15                  0.16        2.43498
              O 8  -- Na 2                   0.16        2.43498
              O 30 -- Na 10                  0.16        2.43498
              O 15 -- Na 7                   0.16        2.43498
              H 19 -- Na 13                 -0.15        2.43860
              H 7  -- Na 5                  -0.15        2.43860
              H 6  -- Na 4                  -0.15        2.43860
              H 18 -- Na 12                 -0.15        2.43860
              O 32 -- Na 14                  0.14        2.43964
              O 13 -- Na 3                   0.14        2.43964
              O 10 -- Na 6                   0.14        2.43964
              O 35 -- Na 11                  0.14        2.43964
              O 7  -- Na 1                   0.10        2.45667
              O 38 -- Na 16                  0.10        2.45667
              O 29 -- Na 9                   0.10        2.45667
              O 16 -- Na 8                   0.10        2.45667
              O 12 -- Na 5                   0.09        2.47366
              O 11 -- Na 4                   0.09        2.47366
              O 33 -- Na 12                  0.09        2.47366
              O 34 -- Na 13                  0.09        2.47366
              O 19 -- Na 9                   0.03        2.47521
              O 26 -- Na 8                   0.03        2.47521
              O 4  -- Na 16                  0.03        2.47521
              O 41 -- Na 1                   0.03        2.47521
              H 24 -- O 43                  -0.03        2.47717
              H 13 -- O 24                  -0.03        2.47717
              H 12 -- O 21                  -0.03        2.47717
              H 1  -- O 2                   -0.03        2.47717
              O 38 -- Na 11                  0.06        2.51048
              O 29 -- Na 14                  0.06        2.51048
              O 7  -- Na 6                   0.06        2.51048
              O 16 -- Na 3                   0.06        2.51048
              O 24 -- Na 7                  -0.04        2.51579
              O 21 -- Na 10                 -0.04        2.51579
              O 43 -- Na 2                  -0.04        2.51579
              O 2  -- Na 15                 -0.04        2.51579
              O 12 -- Na 6                   0.09        2.51889
              O 34 -- Na 14                  0.09        2.51889
              O 11 -- Na 3                   0.09        2.51889
              O 33 -- Na 11                  0.09        2.51889
              O 21 -- Na 6                   0.15        2.54735
              O 2  -- Na 3                   0.15        2.54735
              O 43 -- Na 14                  0.15        2.54735
              O 24 -- Na 11                  0.15        2.54735
              H 21 -- Na 12                 -0.09        2.55438
              H 16 -- Na 13                 -0.09        2.55438
              H 9  -- Na 4                  -0.09        2.55438
              H 4  -- Na 5                  -0.09        2.55438
              O 19 -- Na 8                   0.08        2.59342
              O 26 -- Na 9                   0.08        2.59342
              O 4  -- Na 1                   0.08        2.59342
              O 41 -- Na 16                  0.08        2.59342
              H 12 -- H 14                  -0.00        2.59927
              H 11 -- H 13                  -0.00        2.59927
              H 1  -- H 23                  -0.00        2.59927
              H 2  -- H 24                  -0.00        2.59927
              H 21 -- O 35                  -0.02        2.60357
              H 16 -- O 32                  -0.02        2.60357
              H 4  -- O 10                  -0.02        2.60357
              H 9  -- O 13                  -0.02        2.60357
              H 19 -- O 42                  -0.01        2.67474
              H 6  -- O 3                   -0.01        2.67474
              H 18 -- O 25                  -0.01        2.67474
              H 7  -- O 20                  -0.01        2.67474
              H 16 -- Na 8                  -0.15        2.69053
              H 9  -- Na 9                  -0.15        2.69053
              H 21 -- Na 1                  -0.15        2.69053
              H 4  -- Na 16                 -0.15        2.69053
              O 13 -- Na 7                   0.01        2.69079
              O 10 -- Na 2                   0.01        2.69079
              O 35 -- Na 15                  0.01        2.69079
              O 32 -- Na 10                  0.01        2.69079
              O 36 -- O 39                  -0.10        2.70563
              O 6  -- O 9                   -0.10        2.70563
              O 28 -- O 31                  -0.10        2.70563
              O 14 -- O 17                  -0.10        2.70563
              O 12 -- O 18                  -0.09        2.71168
              O 5  -- O 11                  -0.09        2.71168
              O 27 -- O 33                  -0.09        2.71168
              O 34 -- O 40                  -0.09        2.71168
              O 17 -- O 23                  -0.08        2.72544
              O 6  -- O 44                  -0.08        2.72544
              O 1  -- O 39                  -0.08        2.72544
              O 22 -- O 28                  -0.08        2.72544
              H 17 -- O 38                  -0.02        2.73204
              H 5  -- O 16                  -0.02        2.73204
              H 20 -- O 29                  -0.02        2.73204
              H 8  -- O 7                   -0.02        2.73204
              O 15 -- O 22                  -0.02        2.76275
              O 1  -- O 8                   -0.02        2.76275
              O 37 -- O 44                  -0.02        2.76275
              O 23 -- O 30                  -0.02        2.76275
              O 28 -- O 37                  -0.07        2.78082
              O 30 -- O 39                  -0.07        2.78082
              O 8  -- O 17                  -0.07        2.78082
              O 6  -- O 15                  -0.07        2.78082
              O 20 -- O 29                  -0.02        2.79298
              O 16 -- O 25                  -0.02        2.79298
              O 3  -- O 38                  -0.02        2.79298
              O 7  -- O 42                  -0.02        2.79298
              O 18 -- O 26                  -0.02        2.79334
              O 19 -- O 27                  -0.02        2.79334
              O 4  -- O 40                  -0.02        2.79334
              O 5  -- O 41                  -0.02        2.79334
              H 18 -- O 29                  -0.00        2.82415
              H 6  -- O 7                   -0.00        2.82415
              H 7  -- O 16                  -0.00        2.82415
              H 19 -- O 38                  -0.00        2.82415
              O 33 -- O 41                  -0.06        2.82801
              O 26 -- O 34                  -0.06        2.82801
              O 11 -- O 19                  -0.06        2.82801
              O 4  -- O 12                  -0.06        2.82801
              O 40 -- Na 12                 -0.06        2.83043
              O 27 -- Na 13                 -0.06        2.83043
              O 18 -- Na 4                  -0.06        2.83043
              O 5  -- Na 5                  -0.06        2.83043
              O 27 -- Na 8                   0.03        2.84670
              O 18 -- Na 9                   0.03        2.84670
              O 40 -- Na 1                   0.03        2.84670
              O 5  -- Na 16                  0.03        2.84670
              O 33 -- Na 13                 -0.20        2.85490
              O 12 -- Na 4                  -0.20        2.85490
              O 11 -- Na 5                  -0.20        2.85490
              O 34 -- Na 12                 -0.20        2.85490
              O 13 -- O 24                  -0.02        2.86164
              O 21 -- O 32                  -0.02        2.86164
              O 2  -- O 35                  -0.02        2.86164
              O 10 -- O 43                  -0.02        2.86164
              O 2  -- O 40                  -0.02        2.86336
              O 5  -- O 43                  -0.02        2.86336
              O 21 -- O 27                  -0.02        2.86336
              O 18 -- O 24                  -0.02        2.86336
              O 35 -- O 38                  -0.03        2.86715
              O 13 -- O 16                  -0.03        2.86715
              O 29 -- O 32                  -0.03        2.86715
              O 7  -- O 10                  -0.03        2.86715
              O 15 -- O 25                  -0.02        2.87315
              O 20 -- O 30                  -0.02        2.87315
              O 8  -- O 42                  -0.02        2.87315
              O 3  -- O 37                  -0.02        2.87315
              H 6  -- Na 5                  -0.12        2.87667
              H 7  -- Na 4                  -0.12        2.87667
              H 19 -- Na 12                 -0.12        2.87667
              H 18 -- Na 13                 -0.12        2.87667
              H 3  -- Na 3                  -0.13        2.88795
              H 10 -- Na 6                  -0.13        2.88795
              H 22 -- Na 14                 -0.13        2.88795
              H 15 -- Na 11                 -0.13        2.88795
              O 35 -- O 37                  -0.02        2.89582
              O 13 -- O 15                  -0.02        2.89582
              O 8  -- O 10                  -0.02        2.89582
              O 30 -- O 32                  -0.02        2.89582
              H 3  -- Na 7                  -0.06        2.90433
              H 15 -- Na 15                 -0.06        2.90433
              H 10 -- Na 2                  -0.06        2.90433
              H 22 -- Na 10                 -0.06        2.90433
              H 17 -- Na 12                 -0.09        2.90493
              H 8  -- Na 5                  -0.09        2.90493
              H 20 -- Na 13                 -0.09        2.90493
              H 5  -- Na 4                  -0.09        2.90493
              O 19 -- O 29                  -0.02        2.91229
              O 16 -- O 26                  -0.02        2.91229
              O 4  -- O 38                  -0.02        2.91229
              O 7  -- O 41                  -0.02        2.91229
              H 17 -- Na 10                 -0.15        2.91456
              H 20 -- Na 15                 -0.15        2.91456
              H 5  -- Na 2                  -0.15        2.91456
              H 8  -- Na 7                  -0.15        2.91456
              H 3  -- O 13                  -0.00        2.92031
              H 10 -- O 10                  -0.00        2.92031
              H 22 -- O 32                  -0.00        2.92031
              H 15 -- O 35                  -0.00        2.92031
              O 22 -- O 25                  -0.02        2.92055
              O 20 -- O 23                  -0.02        2.92055
              O 1  -- O 42                  -0.02        2.92055
              O 3  -- O 44                  -0.02        2.92055
              H 2  -- O 8                   -0.00        2.92200
              H 23 -- O 37                  -0.00        2.92200
              H 14 -- O 30                  -0.00        2.92200
              H 11 -- O 15                  -0.00        2.92200
              H 17 -- O 35                  -0.00        2.92295
              H 5  -- O 13                  -0.00        2.92295
              H 20 -- O 32                  -0.00        2.92295
              H 8  -- O 10                  -0.00        2.92295
              O 2  -- Na 16                 -0.01        2.92993
              O 43 -- Na 1                  -0.01        2.92993
              O 21 -- Na 9                  -0.01        2.92993
              O 24 -- Na 8                  -0.01        2.92993
              O 35 -- O 44                  -0.02        2.93829
              O 13 -- O 22                  -0.02        2.93829
              O 1  -- O 10                  -0.02        2.93829
              O 23 -- O 32                  -0.02        2.93829
              O 29 -- O 34                  -0.02        2.94632
              O 11 -- O 16                  -0.02        2.94632
              O 33 -- O 38                  -0.02        2.94632
              O 7  -- O 12                  -0.02        2.94632
              H 14 -- H 20                   0.00        2.97534
              H 5  -- H 11                   0.00        2.97534
              H 17 -- H 23                   0.00        2.97534
              H 2  -- H 8                    0.00        2.97534
              H 9  -- Na 5                  -0.15        2.97712
              H 4  -- Na 4                  -0.15        2.97712
              H 16 -- Na 12                 -0.15        2.97712
              H 21 -- Na 13                 -0.15        2.97712
              O 9  -- O 13                  -0.01        2.98220
              O 32 -- O 36                  -0.01        2.98220
              O 31 -- O 35                  -0.01        2.98220
              O 10 -- O 14                  -0.01        2.98220
              H 23 -- Na 10                 -0.11        2.98788
              H 2  -- Na 7                  -0.11        2.98788
              H 11 -- Na 2                  -0.11        2.98788
              H 14 -- Na 15                 -0.11        2.98788
              O 19 -- O 21                  -0.02        2.99322
              O 2  -- O 4                   -0.02        2.99322
              O 24 -- O 26                  -0.02        2.99322
              O 41 -- O 43                  -0.02        2.99322
              O 12 -- Na 9                  -0.05        2.99564
              O 33 -- Na 8                  -0.05        2.99564
              O 34 -- Na 1                  -0.05        2.99564
              O 11 -- Na 16                 -0.05        2.99564
              O 38 -- O 40                  -0.02        2.99816
              O 16 -- O 18                  -0.02        2.99816
              O 27 -- O 29                  -0.02        2.99816
              O 5  -- O 7                   -0.02        2.99816
              H 12 -- Na 5                  -0.10        2.99909
              H 24 -- Na 13                 -0.10        2.99909
              H 13 -- Na 12                 -0.10        2.99909
              H 1  -- Na 4                  -0.10        2.99909
======================================================================
 

Writing analysis data to Na4TiO8_w_water.castep_bin

Writing model to Na4TiO8_w_water.check
 
 A BibTeX formatted list of references used in this run has been written to 
 Na4TiO8_w_water.bib
 
Initialisation time =     12.10 s
Calculation time    =  45691.49 s
Finalisation time   =      0.48 s
Total time          =  45704.07 s
Peak Memory Use     = 5562412 kB
  
Overall parallel efficiency rating: Terrible (5%)                               
  
Data was distributed by:-
G-vector (40-way); efficiency rating: Terrible (5%)                             
