 +-------------------------------------------------+
 |                                                 |
 |      CCC   AA    SSS  TTTTT  EEEEE  PPPP        |
 |     C     A  A  S       T    E      P   P       |
 |     C     AAAA   SS     T    EEE    PPPP        |
 |     C     A  A     S    T    E      P           |
 |      CCC  A  A  SSS     T    EEEEE  P           |
 |                                                 |
 +-------------------------------------------------+
 |                                                 |
 | Welcome to Academic Release CASTEP version 20.11|          
 | Ab Initio Total Energy Program                  |
 |                                                 |
 | Authors:                                        |
 | M. Segall, M. Probert, C. Pickard, P. Hasnip,   |
 | S. Clark, K. Refson, J. R. Yates, M. Payne      |
 |                                                 |
 | Contributors:                                   |
 | P. Lindan, P. Haynes, J. White, V. Milman,      |
 | N. Govind, M. Gibson, P. Tulip, V. Cocula,      |
 | B. Montanari, D. Quigley, M. Glover,            |
 | L. Bernasconi, A. Perlov, M. Plummer,           |
 | E. McNellis, J. Meyer, J. Gale, D. Jochym       |
 | J. Aarons, B. Walker, R. Gillen, D. Jones       |
 | T. Green, I. J. Bush, C. J. Armstrong,          |
 | E. J. Higgins, E. L. Brown, M. S. McFly,        |
 | J. Wilkins, B-C. Shih, P. J. P. Byrne,          |
 | R. J. Maurer, J. C. Womack, J. Dziedzic,        |
 | J. R. Kermode, A. Bartok-Partay                 |
 |                                                 |
 | Copyright (c) 2000 - 2020                       |
 |                                                 |
 |     Distributed under license from Cambridge    |
 |     Enterprise for academic use only.           |
 |                                                 |
 | Please cite                                     |
 |                                                 |
 |     "First principles methods using CASTEP"     |
 |                                                 |
 |         Zeitschrift fuer Kristallographie       |
 |           220(5-6) pp. 567-570 (2005)           |
 |                                                 |
 | S. J. Clark, M. D. Segall, C. J. Pickard,       |
 | P. J. Hasnip, M. J. Probert, K. Refson,         |
 | M. C. Payne                                     |
 |                                                 |
 |       in all publications arising from          |
 |              your use of CASTEP                 |
 |                                                 |
 +-------------------------------------------------+
 |                                                 |
 |              http://www.castep.org              |
 |                                                 |
 +-------------------------------------------------+
 
 
 
 Compiled for linux_x86_64_ifort on Wed, 11 Aug 2021 06:51:56 -0700
 from code version e772bf432+  HEAD  Sat Apr 3 17:41:32 2021 +0100
 Compiler: Intel Fortran 2021.1; Optimisation: fast
 MATHLIBS: Intel MKL(2021.1-Product) (LAPACK version 3.9.0)
 FFT Lib : default
 Fundamental constants values: CODATA 2014
 
 Run started: Tue, 16 Jan 2024 11:44:11 -0800
 Warning - deprecated keyword PHONON_SUM_RULE found in input file
         - preferred usage is PHONON_SUM_RULE_METHOD
 +-------------------------------------------------+
 |                                                 |
 |  D D D D    F F F F F  P P P P     T T T T T    |
 |  D       D  F          P       P       T        |
 |  D       D  F F F F    P P P P         T        |
 |  D       D  F          P               T        |
 |  D D D D    F          P               T        |
 |                                                 |
 +-------------------------------------------------+
 |                                                 |
 | Welcome to Castep Linear Response (DFPT)        |
 |                                                 |
 | Copyright (c) 2006 - 2020                       |
 |                                                 |
 | Please cite the following publications in all   |
 | work arising from your use of CASTEP LR.        |
 |                                                 |
 | K. Refson, S. J. Clark and P. R. Tulip          |
 | Variational density functional perturbation     |
 | theory for dielectrics and lattice dynamics     |
 | Phys. Rev. B 73(15), 155114 (2006)              |
 +-------------------------------------------------+
 
 
 Atomic calculation performed for H: 1s1
 
 Converged in 41 iterations to an ae energy of -12.488 eV
 
   ============================================================                
   | Pseudopotential Report - Date of generation 16-01-2024   |                
   ------------------------------------------------------------                
   | Element: H Ionic charge:  1.00 Level of theory: PBE      |                
   | Atomic Solver: Koelling-Harmon                           |                
   |                                                          |                
   |               Reference Electronic Structure             |                
   |         Orbital         Occupation         Energy        |                
   |            1s              1.000           -0.239        |                
   |                                                          |                
   |                 Pseudopotential Definition               |                
   |        Beta     l      e      Rc     scheme   norm       |                
   |          1      0   -0.239   0.803     qc      1         |                
   |         loc     1    0.000   0.803     pn      0         |                
   |                                                          |                
   | No charge augmentation                                   |                
   | No partial core correction                               |                
   ------------------------------------------------------------                
   | "1|0.8|14|16|19|10N(qc=8)"                               |                
   ------------------------------------------------------------                
   |      Author: Chris J. Pickard, Cambridge University      |                
   ============================================================                
 
 Atomic calculation performed for O: 1s2 2s2 2p4
 
 Converged in 61 iterations to an ae energy of -2040.902 eV
 
   ============================================================                
   | Pseudopotential Report - Date of generation 16-01-2024   |                
   ------------------------------------------------------------                
   | Element: O Ionic charge:  6.00 Level of theory: PBE      |                
   | Atomic Solver: Koelling-Harmon                           |                
   |                                                          |                
   |               Reference Electronic Structure             |                
   |         Orbital         Occupation         Energy        |                
   |            2s              2.000           -0.881        |                
   |            2p              4.000           -0.332        |                
   |                                                          |                
   |                 Pseudopotential Definition               |                
   |        Beta     l      e      Rc     scheme   norm       |                
   |          1      0   -0.881   1.196     qc      1         |                
   |          2      0    0.250   1.196     qc      1         |                
   |          3      1   -0.332   1.196     qc      1         |                
   |          4      1    0.250   1.196     qc      1         |                
   |         loc     2    0.000   1.196     pn      0         |                
   |                                                          |                
   | No charge augmentation                                   |                
   | Partial core correction Rc = 0.842                       |                
   ------------------------------------------------------------                
   | "2|1.2|23|26|31|20NN:21NN(qc=9)"                         |                
   ------------------------------------------------------------                
   |      Author: Chris J. Pickard, Cambridge University      |                
   ============================================================                
 
 Atomic calculation performed for Na: 1s2 2s2 2p6 3s1
 
 Converged in 65 iterations to an ae energy of -4418.769 eV
 
   ============================================================                
   | Pseudopotential Report - Date of generation 16-01-2024   |                
   ------------------------------------------------------------                
   | Element: Na Ionic charge:  9.00 Level of theory: PBE     |                
   | Atomic Solver: Koelling-Harmon                           |                
   |                                                          |                
   |               Reference Electronic Structure             |                
   |         Orbital         Occupation         Energy        |                
   |            2s              2.000           -2.086        |                
   |            2p              6.000           -1.054        |                
   |            3s              1.000           -0.101        |                
   |                                                          |                
   |                 Pseudopotential Definition               |                
   |        Beta     l      e      Rc     scheme   norm       |                
   |          1      0   -2.086   1.495     qc      1         |                
   |          2      0   -0.101   1.495     qc      1         |                
   |          3      1   -1.054   1.495     qc      1         |                
   |         loc     2    0.000   1.495     pn      0         |                
   |                                                          |                
   | No charge augmentation                                   |                
   | Partial core correction Rc = 1.053                       |                
   ------------------------------------------------------------                
   | "2|1.5|20|23|26|20N:30N:21N(qc=8)"                       |                
   ------------------------------------------------------------                
   |      Author: Chris J. Pickard, Cambridge University      |                
   ============================================================                
 
 Atomic calculation performed for Ti: 1s2 2s2 2p6 3s2 3p6 3d2 4s2
 
 Converged in 79 iterations to an ae energy of -23226.658 eV
 
   ============================================================                
   | Pseudopotential Report - Date of generation 16-01-2024   |                
   ------------------------------------------------------------                
   | Element: Ti Ionic charge: 12.00 Level of theory: PBE     |                
   | Atomic Solver: Koelling-Harmon                           |                
   |                                                          |                
   |               Reference Electronic Structure             |                
   |         Orbital         Occupation         Energy        |                
   |            3s              2.000           -2.302        |                
   |            3p              6.000           -1.428        |                
   |            4s              2.000           -0.164        |                
   |            3d              2.000           -0.157        |                
   |                                                          |                
   |                 Pseudopotential Definition               |                
   |        Beta     l      e      Rc     scheme   norm       |                
   |          1      0   -2.302   1.793     qc      1         |                
   |          2      0   -0.164   1.793     qc      1         |                
   |          3      1   -1.428   1.793     qc      1         |                
   |          4      2   -0.157   1.793     qc      1         |                
   |         loc     3    0.000   1.793     pn      0         |                
   |                                                          |                
   | No charge augmentation                                   |                
   | Partial core correction Rc = 1.263                       |                
   ------------------------------------------------------------                
   | "3|1.8|15|17|19|30N:40N:31N:32N(qc=7)"                   |                
   ------------------------------------------------------------                
   |      Author: Chris J. Pickard, Cambridge University      |                
   ============================================================                
 
 Pseudo atomic calculation performed for H 1s1
 
 Converged in 22 iterations to a total energy of -12.4801 eV
 
 Pseudo atomic calculation performed for O 2s2 2p4
 
 Converged in 43 iterations to a total energy of -429.1989 eV
 
 Pseudo atomic calculation performed for Na 2s2 2p6 3s1
 
 Converged in 27 iterations to a total energy of -1230.2427 eV
 
 Pseudo atomic calculation performed for Ti 3s2 3p6 3d2 4s2
 
 Converged in 49 iterations to a total energy of -1577.3344 eV
 Calculation parallelised over 40 processes.
 Data is distributed by G-vector(40-way)

 ************************************ Title ************************************
 phonon calc with some thermo stuff at 298 K

 ***************************** General Parameters ******************************
  
 output verbosity                               : normal  (1)
 write checkpoint data to                       : Na4TiO8_w_water_thermo.check
 type of calculation                            : Thermodynamics calculation
 stress calculation                             : off
 density difference calculation                 : off
 electron localisation func (ELF) calculation   : off
 Hirshfeld analysis                             : off
 molecular orbital projected DOS                : off
 deltaSCF calculation                           : off
 unlimited duration calculation
 timing information                             : on
 memory usage estimate                          : on
 write extra output files                       : on
 write final potential to formatted file        : off
 write final density to formatted file          : off
 write BibTeX reference list                    : on
 write OTFG pseudopotential files               : on
 write electrostatic potential file             : on
 write bands file                               : on
 checkpoint writing                             : both castep_bin and check files
  
 output         length unit                     : A
 output           mass unit                     : amu
 output           time unit                     : ps
 output         charge unit                     : e
 output           spin unit                     : hbar/2
 output         energy unit                     : eV
 output          force unit                     : eV/A
 output       velocity unit                     : A/ps
 output       pressure unit                     : GPa
 output     inv_length unit                     : 1/A
 output      frequency unit                     : cm-1
 output force constant unit                     : eV/A**2
 output         volume unit                     : A**3
 output   IR intensity unit                     : (D/A)**2/amu
 output         dipole unit                     : D
 output         efield unit                     : eV/A/e
 output        entropy unit                     : J/mol/K
 output    efield chi2 unit                     : pm/V
  
 wavefunctions paging                           : none
 random number generator seed                   : randomised (114411613)
 data distribution                              : optimal for this architecture
 optimization strategy                          : maximize speed(+++)

 *********************** Exchange-Correlation Parameters ***********************
  
 using functional                               : Perdew Burke Ernzerhof
 relativistic treatment                         : Koelling-Harmon
 DFT+D: Semi-empirical dispersion correction    : off

 ************************* Pseudopotential Parameters **************************
  
 pseudopotential representation                 : reciprocal space
 <beta|phi> representation                      : reciprocal space
 spin-orbit coupling                            : off

 **************************** Basis Set Parameters *****************************
  
 plane wave basis set cut-off                   :   850.0000   eV
 size of standard grid                          :     1.7500
 size of   fine   gmax                          :    26.1388   1/A
 finite basis set correction                    : none

 **************************** Electronic Parameters ****************************
  
 number of  electrons                           :  480.0    
 net charge of system                           :  0.000    
 treating system as non-spin-polarized
 number of bands                                :        240
 electron temperature                           :     0.0000   K

 ********************* Electronic Minimization Parameters **********************
  
 Method: Treating system as non-metallic,
         and number of  SD  steps               :          1
         and number of  CG  steps               :          4
  
 total energy / atom convergence tol.           : 0.1000E-09   eV
 max force / atom convergence tol.              : ignored
 convergence tolerance window                   :          3   cycles
 max. number of SCF cycles                      :        250
 periodic dipole correction                     : NONE

 *********************** Population Analysis Parameters ************************
  
 Population analysis with cutoff                :  3.000       A
 Population analysis output                     : summary and pdos components

 ****************************** Phonon Parameters ******************************
  
 phonon calculation method                      : finite displacement
 finite displacement amplitude                  : 0.5292E-02   A
 fine phonon calculation method                 : supercell
 non-periodic force constant method             : Weighted cumulant sum
 LO/TO splitting term                           : included
 acoustic phonon sum rule                       : correct D(q) in recip-space
 Born effective charges                         : calculated
 Born charge sum rule                           : explicitly enforced
 Raman intensities                              : not calculated
 phonon k-points                                : use reduced set
 phonon DOS                                     : not calculated
 no timed backups

 ************************** Thermodynamics Parameters **************************
 Helmholtz free energy                          : calculated
 Initial temperature                            :  10.00       K
 Final temperature                              :  1000.       K
 Spacing between temperature values             :  5.000       K
 Number of temperature values                   :        199
 band convergence tolerance                     : 0.1000E-08   eV

 *******************************************************************************
  
 
                           -------------------------------
                                      Unit Cell
                           -------------------------------
        Real Lattice(A)                      Reciprocal Lattice(1/A)
    12.7545697     0.0000000     0.1974926        0.490184033   0.000000000   0.157468703
     0.0000000     6.3217144     0.0000000        0.000000000   0.993905276   0.000000000
    -3.8688795     0.0000000    12.0434278       -0.008038218   0.000000000   0.519128483
 
                       Lattice parameters(A)       Cell Angles
                    a =     12.756099          alpha =   90.000000
                    b =      6.321714          beta  =  106.922205
                    c =     12.649600          gamma =   90.000000
 
                       Current cell volume =           975.900843       A**3
                                   density =             1.319262   AMU/A**3
                                           =             2.190685     g/cm^3
 
                           -------------------------------
                                     Cell Contents
                           -------------------------------
                         Total number of ions in cell =   88
                      Total number of species in cell =    4
                        Max number of any one species =   44
 
            xxxxxxxxxxxxxxxxxxxxxxxxxxxxxxxxxxxxxxxxxxxxxxxxxxxxxxxxxxxx
            x  Element    Atom        Fractional coordinates of atoms  x
            x            Number           u          v          w      x
            x----------------------------------------------------------x
            x  H            1         0.093896   0.696203   0.074121   x 
            x  H            2         0.013374   0.225831   0.130556   x 
            x  H            3         0.069080   0.001983   0.153702   x 
            x  H            4         0.512553   0.425539   0.174984   x 
            x  H            5         0.108240   0.664515   0.203597   x 
            x  H            6         0.502086   0.895822   0.205825   x 
            x  H            7         0.497914   0.395822   0.294175   x 
            x  H            8         0.891760   0.164515   0.296403   x 
            x  H            9         0.487447   0.925539   0.325016   x 
            x  H           10         0.930920   0.501983   0.346298   x 
            x  H           11         0.986626   0.725831   0.369444   x 
            x  H           12         0.906104   0.196203   0.425879   x 
            x  H           13         0.093896   0.803797   0.574121   x 
            x  H           14         0.013374   0.274169   0.630556   x 
            x  H           15         0.069080   0.498017   0.653702   x 
            x  H           16         0.512553   0.074461   0.674984   x 
            x  H           17         0.108240   0.835485   0.703597   x 
            x  H           18         0.502086   0.604178   0.705825   x 
            x  H           19         0.497914   0.104178   0.794175   x 
            x  H           20         0.891760   0.335485   0.796403   x 
            x  H           21         0.487447   0.574461   0.825016   x 
            x  H           22         0.930920   0.998017   0.846298   x 
            x  H           23         0.986626   0.774169   0.869444   x 
            x  H           24         0.906104   0.303797   0.925879   x 
            x  O            1         0.848389   0.362211   0.030064   x 
            x  O            2         0.248826   0.512943   0.032303   x 
            x  O            3         0.307345   0.976892   0.060510   x 
            x  O            4         0.411486   0.865742   0.063339   x 
            x  O            5         0.606474   0.437367   0.101672   x 
            x  O            6         0.061643   0.733270   0.134869   x 
            x  O            7         0.700269   0.004026   0.162193   x 
            x  O            8         0.816287   0.046979   0.168706   x 
            x  O            9         0.080030   0.154987   0.172147   x 
            x  O           10         0.717850   0.455435   0.181285   x 
            x  O           11         0.456671   0.398912   0.214856   x 
            x  O           12         0.543329   0.898912   0.285144   x 
            x  O           13         0.282150   0.955435   0.318715   x 
            x  O           14         0.919970   0.654987   0.327853   x 
            x  O           15         0.183713   0.546979   0.331294   x 
            x  O           16         0.299731   0.504026   0.337807   x 
            x  O           17         0.938357   0.233270   0.365131   x 
            x  O           18         0.393526   0.937367   0.398328   x 
            x  O           19         0.588514   0.365742   0.436661   x 
            x  O           20         0.692655   0.476892   0.439490   x 
            x  O           21         0.751174   0.012943   0.467697   x 
            x  O           22         0.151611   0.862211   0.469936   x 
            x  O           23         0.848389   0.137789   0.530064   x 
            x  O           24         0.248826   0.987057   0.532303   x 
            x  O           25         0.307345   0.523108   0.560510   x 
            x  O           26         0.411486   0.634258   0.563339   x 
            x  O           27         0.606474   0.062633   0.601672   x 
            x  O           28         0.061643   0.766730   0.634869   x 
            x  O           29         0.700269   0.495974   0.662193   x 
            x  O           30         0.816287   0.453021   0.668706   x 
            x  O           31         0.080030   0.345013   0.672147   x 
            x  O           32         0.717850   0.044565   0.681285   x 
            x  O           33         0.456671   0.101088   0.714856   x 
            x  O           34         0.543329   0.601088   0.785144   x 
            x  O           35         0.282150   0.544565   0.818715   x 
            x  O           36         0.919970   0.845013   0.827853   x 
            x  O           37         0.183713   0.953021   0.831294   x 
            x  O           38         0.299731   0.995974   0.837807   x 
            x  O           39         0.938357   0.266730   0.865131   x 
            x  O           40         0.393526   0.562633   0.898328   x 
            x  O           41         0.588514   0.134258   0.936661   x 
            x  O           42         0.692655   0.023108   0.939490   x 
            x  O           43         0.751174   0.487057   0.967697   x 
            x  O           44         0.151611   0.637789   0.969936   x 
            x  Na           1         0.590167   0.774680   0.014563   x 
            x  Na           2         0.869957   0.693511   0.128167   x 
            x  Na           3         0.269490   0.238286   0.184365   x 
            x  Na           4         0.333260   0.706941   0.197812   x 
            x  Na           5         0.666740   0.206941   0.302188   x 
            x  Na           6         0.730510   0.738286   0.315635   x 
            x  Na           7         0.130043   0.193511   0.371833   x 
            x  Na           8         0.409833   0.274680   0.485437   x 
            x  Na           9         0.590167   0.725320   0.514563   x 
            x  Na          10         0.869957   0.806489   0.628167   x 
            x  Na          11         0.269490   0.261714   0.684365   x 
            x  Na          12         0.333260   0.793059   0.697812   x 
            x  Na          13         0.666740   0.293059   0.802188   x 
            x  Na          14         0.730510   0.761714   0.815635   x 
            x  Na          15         0.130043   0.306489   0.871833   x 
            x  Na          16         0.409833   0.225320   0.985437   x 
            x  Ti           1         0.716323   0.243888   0.061472   x 
            x  Ti           2         0.283677   0.743888   0.438528   x 
            x  Ti           3         0.716323   0.256112   0.561472   x 
            x  Ti           4         0.283677   0.756112   0.938528   x 
            xxxxxxxxxxxxxxxxxxxxxxxxxxxxxxxxxxxxxxxxxxxxxxxxxxxxxxxxxxxx
 
 
                         No user defined ionic velocities
 
                           -------------------------------
                                   Details of Species
                           -------------------------------
 
                               Mass of species in AMU
                                    H    1.0079400
                                    O   15.9994000
                                    Na   22.9897700
                                    Ti   47.8670000
 
                          Electric Quadrupole Moment (Barn)
                                    H    0.0028600 Isotope  2
                                    O   -0.0255800 Isotope 17
                                    Na    0.1040000 Isotope 23
                                    Ti    0.3020000 Isotope 47
 
                          Files used for pseudopotentials:
                                    H 1|0.8|14|16|19|10N(qc=8)
                                    O 2|1.2|23|26|31|20NN:21NN(qc=9)
                                    Na 2|1.5|20|23|26|20N:30N:21N(qc=8)
                                    Ti 3|1.8|15|17|19|30N:40N:31N:32N(qc=7)
 
                           -------------------------------
                              k-Points For BZ Sampling
                           -------------------------------
                       MP grid size for SCF calculation is  1  1  1
                            with an offset of   0.000  0.000  0.000
                       Number of kpoints used =             1
 
                           -------------------------------
                               Symmetry and Constraints
                           -------------------------------
 
                      Maximum deviation from symmetry =  0.00000         ANG
 
                      Number of symmetry operations   =           1
                      Number of ionic constraints     =           3
                      Point group of crystal =     1: C1, 1, 1
                      Space group of crystal =    14: P2_1/c, -P 2ybc
 
             Set iprint > 1 for details on symmetry rotations/translations
 
                         Centre of mass is constrained
             Set iprint > 1 for details of linear ionic constraints
 
                         Number of cell constraints= 0
                         Cell constraints are:  1 2 3 4 5 6
 
                         External pressure/stress (GPa)
                          0.00000   0.00000   0.00000
                                    0.00000   0.00000
                                              0.00000
  
+---------------- MEMORY AND SCRATCH DISK ESTIMATES PER PROCESS --------------+
|                                                     Memory          Disk    |
| Baseline code, static data and system overhead     5083.0 MB         0.0 MB |
| BLAS internal memory storage                          0.0 MB         0.0 MB |
| Model and support data                              118.5 MB         0.0 MB |
| Electronic energy minimisation requirements          21.6 MB         0.0 MB |
| Force calculation requirements                        2.1 MB         0.0 MB |
|                                               ----------------------------- |
| Approx. total storage required per process         5223.0 MB         0.0 MB |
|                                                                             |
| Requirements will fluctuate during execution and may exceed these estimates |
+-----------------------------------------------------------------------------+
Calculating total energy with cut-off of  850.000 eV.
------------------------------------------------------------------------ <-- SCF
SCF loop      Energy                           Energy gain       Timer   <-- SCF
                                               per atom          (sec)   <-- SCF
------------------------------------------------------------------------ <-- SCF
Initial  -1.06385224E+003                                         12.46  <-- SCF
      1  -1.89472941E+004                    2.03220930E+002      16.42  <-- SCF
      2  -4.22645410E+004                    2.64968715E+002      19.62  <-- SCF
      3  -4.54022370E+004                    3.56556360E+001      22.38  <-- SCF
      4  -4.55892518E+004                    2.12516806E+000      25.08  <-- SCF
      5  -4.56252226E+004                    4.08759113E-001      27.79  <-- SCF
      6  -4.56354721E+004                    1.16472255E-001      30.55  <-- SCF
      7  -4.56379651E+004                    2.83289464E-002      33.34  <-- SCF
      8  -4.56383850E+004                    4.77148246E-003      36.06  <-- SCF
      9  -4.56384658E+004                    9.18568193E-004      38.74  <-- SCF
     10  -4.56384837E+004                    2.03754453E-004      41.43  <-- SCF
     11  -4.56384881E+004                    4.96465233E-005      44.21  <-- SCF
     12  -4.56384892E+004                    1.29671714E-005      47.08  <-- SCF
     13  -4.56384895E+004                    3.50575963E-006      49.83  <-- SCF
     14  -4.56384896E+004                    9.68349325E-007      52.52  <-- SCF
     15  -4.56384896E+004                    2.70401571E-007      55.25  <-- SCF
     16  -4.56384896E+004                    7.60436943E-008      57.97  <-- SCF
     17  -4.56384897E+004                    2.14808807E-008      60.68  <-- SCF
     18  -4.56384897E+004                    6.08766625E-009      63.43  <-- SCF
     19  -4.56384897E+004                    1.72944984E-009      66.10  <-- SCF
     20  -4.56384897E+004                    4.92581737E-010      68.77  <-- SCF
     21  -4.56384897E+004                    1.40617110E-010      71.45  <-- SCF
     22  -4.56384897E+004                    4.00055679E-011      74.12  <-- SCF
     23  -4.56384897E+004                    1.16009116E-011      76.85  <-- SCF
------------------------------------------------------------------------ <-- SCF
 
Final energy =  -45638.48965254     eV
(energy not corrected for finite basis set)
 

Writing analysis data to Na4TiO8_w_water_thermo.castep_bin

Writing model to Na4TiO8_w_water_thermo.check

 Efield perturbation    1:  X                                            80.43s
  +---------------- MEMORY AND SCRATCH DISK ESTIMATES PER PROCESS --------------+
  |                                                     Memory          Disk    |
  | Baseline code, static data and system overhead     5083.0 MB         0.0 MB |
  | BLAS internal memory storage                          0.0 MB         0.0 MB |
  | Model and support data                              119.3 MB         0.0 MB |
  | DFPT E-field response requirements                   50.3 MB         0.0 MB |
  |                                               ----------------------------- |
  | Approx. total storage required per process         5252.6 MB         0.0 MB |
  |                                                                             |
  | Requirements will fluctuate during execution and may exceed these estimates |
  +-----------------------------------------------------------------------------+

 Efield perturbation    2:  Y                                           216.31s

 Efield perturbation    3:  Z                                           283.49s
 Perturbation    1 (of  264): H     1 X at q=( 0.000, 0.000, 0.000):    351.34s
 Perturbation    2 (of  264): H     1 Y at q=( 0.000, 0.000, 0.000):    391.07s
 Perturbation    3 (of  264): H     1 Z at q=( 0.000, 0.000, 0.000):    427.72s
 Perturbation    4 (of  264): H     2 X at q=( 0.000, 0.000, 0.000):    466.91s
 Perturbation    5 (of  264): H     2 Y at q=( 0.000, 0.000, 0.000):    500.50s
 Perturbation    6 (of  264): H     2 Z at q=( 0.000, 0.000, 0.000):    531.85s
 Perturbation    7 (of  264): H     3 X at q=( 0.000, 0.000, 0.000):    562.85s
 Perturbation    8 (of  264): H     3 Y at q=( 0.000, 0.000, 0.000):    593.99s
 Perturbation    9 (of  264): H     3 Z at q=( 0.000, 0.000, 0.000):    627.81s
 Perturbation   10 (of  264): H     4 X at q=( 0.000, 0.000, 0.000):    658.74s
 Perturbation   11 (of  264): H     4 Y at q=( 0.000, 0.000, 0.000):    697.86s
 Perturbation   12 (of  264): H     4 Z at q=( 0.000, 0.000, 0.000):    731.65s
 Perturbation   13 (of  264): H     5 X at q=( 0.000, 0.000, 0.000):    765.16s
 Perturbation   14 (of  264): H     5 Y at q=( 0.000, 0.000, 0.000):    801.75s
 Perturbation   15 (of  264): H     5 Z at q=( 0.000, 0.000, 0.000):    835.64s
 Perturbation   16 (of  264): H     6 X at q=( 0.000, 0.000, 0.000):    872.36s
 Perturbation   17 (of  264): H     6 Y at q=( 0.000, 0.000, 0.000):    909.03s
 Perturbation   18 (of  264): H     6 Z at q=( 0.000, 0.000, 0.000):    942.75s
 Perturbation   19 (of  264): H     7 X at q=( 0.000, 0.000, 0.000):    979.46s
 Perturbation   20 (of  264): H     7 Y at q=( 0.000, 0.000, 0.000):   1016.01s
 Perturbation   21 (of  264): H     7 Z at q=( 0.000, 0.000, 0.000):   1049.70s
 Perturbation   22 (of  264): H     8 X at q=( 0.000, 0.000, 0.000):   1086.23s
 Perturbation   23 (of  264): H     8 Y at q=( 0.000, 0.000, 0.000):   1122.59s
 Perturbation   24 (of  264): H     8 Z at q=( 0.000, 0.000, 0.000):   1158.91s
 Perturbation   25 (of  264): H     9 X at q=( 0.000, 0.000, 0.000):   1198.19s
 Perturbation   26 (of  264): H     9 Y at q=( 0.000, 0.000, 0.000):   1236.95s
 Perturbation   27 (of  264): H     9 Z at q=( 0.000, 0.000, 0.000):   1270.71s
 Perturbation   28 (of  264): H    10 X at q=( 0.000, 0.000, 0.000):   1307.07s
 Perturbation   29 (of  264): H    10 Y at q=( 0.000, 0.000, 0.000):   1338.31s
 Perturbation   30 (of  264): H    10 Z at q=( 0.000, 0.000, 0.000):   1371.95s
 Perturbation   31 (of  264): H    11 X at q=( 0.000, 0.000, 0.000):   1403.37s
 Perturbation   32 (of  264): H    11 Y at q=( 0.000, 0.000, 0.000):   1434.27s
 Perturbation   33 (of  264): H    11 Z at q=( 0.000, 0.000, 0.000):   1465.33s
 Perturbation   34 (of  264): H    12 X at q=( 0.000, 0.000, 0.000):   1496.32s
 Perturbation   35 (of  264): H    12 Y at q=( 0.000, 0.000, 0.000):   1535.50s
 Perturbation   36 (of  264): H    12 Z at q=( 0.000, 0.000, 0.000):   1572.35s
 Perturbation   37 (of  264): H    13 X at q=( 0.000, 0.000, 0.000):   1611.10s
 Perturbation   38 (of  264): H    13 Y at q=( 0.000, 0.000, 0.000):   1650.14s
 Perturbation   39 (of  264): H    13 Z at q=( 0.000, 0.000, 0.000):   1686.82s
 Perturbation   40 (of  264): H    14 X at q=( 0.000, 0.000, 0.000):   1725.83s
 Perturbation   41 (of  264): H    14 Y at q=( 0.000, 0.000, 0.000):   1759.65s
 Perturbation   42 (of  264): H    14 Z at q=( 0.000, 0.000, 0.000):   1790.71s
 Perturbation   43 (of  264): H    15 X at q=( 0.000, 0.000, 0.000):   1821.52s
 Perturbation   44 (of  264): H    15 Y at q=( 0.000, 0.000, 0.000):   1852.64s
 Perturbation   45 (of  264): H    15 Z at q=( 0.000, 0.000, 0.000):   1886.14s
 Perturbation   46 (of  264): H    16 X at q=( 0.000, 0.000, 0.000):   1917.35s
 Perturbation   47 (of  264): H    16 Y at q=( 0.000, 0.000, 0.000):   1956.28s
 Perturbation   48 (of  264): H    16 Z at q=( 0.000, 0.000, 0.000):   1989.98s
 Perturbation   49 (of  264): H    17 X at q=( 0.000, 0.000, 0.000):   2027.01s
 Perturbation   50 (of  264): H    17 Y at q=( 0.000, 0.000, 0.000):   2063.52s
 Perturbation   51 (of  264): H    17 Z at q=( 0.000, 0.000, 0.000):   2099.78s
 Perturbation   52 (of  264): H    18 X at q=( 0.000, 0.000, 0.000):   2138.72s
 Perturbation   53 (of  264): H    18 Y at q=( 0.000, 0.000, 0.000):   2175.51s
 Perturbation   54 (of  264): H    18 Z at q=( 0.000, 0.000, 0.000):   2209.30s
 Perturbation   55 (of  264): H    19 X at q=( 0.000, 0.000, 0.000):   2245.68s
 Perturbation   56 (of  264): H    19 Y at q=( 0.000, 0.000, 0.000):   2281.85s
 Perturbation   57 (of  264): H    19 Z at q=( 0.000, 0.000, 0.000):   2315.73s
 Perturbation   58 (of  264): H    20 X at q=( 0.000, 0.000, 0.000):   2352.20s
 Perturbation   59 (of  264): H    20 Y at q=( 0.000, 0.000, 0.000):   2388.35s
 Perturbation   60 (of  264): H    20 Z at q=( 0.000, 0.000, 0.000):   2422.22s
 Perturbation   61 (of  264): H    21 X at q=( 0.000, 0.000, 0.000):   2458.53s
 Perturbation   62 (of  264): H    21 Y at q=( 0.000, 0.000, 0.000):   2498.06s
 Perturbation   63 (of  264): H    21 Z at q=( 0.000, 0.000, 0.000):   2531.57s
 Perturbation   64 (of  264): H    22 X at q=( 0.000, 0.000, 0.000):   2565.00s
 Perturbation   65 (of  264): H    22 Y at q=( 0.000, 0.000, 0.000):   2595.84s
 Perturbation   66 (of  264): H    22 Z at q=( 0.000, 0.000, 0.000):   2629.48s
 Perturbation   67 (of  264): H    23 X at q=( 0.000, 0.000, 0.000):   2660.65s
 Perturbation   68 (of  264): H    23 Y at q=( 0.000, 0.000, 0.000):   2691.44s
 Perturbation   69 (of  264): H    23 Z at q=( 0.000, 0.000, 0.000):   2722.40s
 Perturbation   70 (of  264): H    24 X at q=( 0.000, 0.000, 0.000):   2753.15s
 Perturbation   71 (of  264): H    24 Y at q=( 0.000, 0.000, 0.000):   2792.15s
 Perturbation   72 (of  264): H    24 Z at q=( 0.000, 0.000, 0.000):   2828.32s
 Perturbation   73 (of  264): O     1 X at q=( 0.000, 0.000, 0.000):   2867.17s
 Perturbation   74 (of  264): O     1 Y at q=( 0.000, 0.000, 0.000):   2922.21s
 Perturbation   75 (of  264): O     1 Z at q=( 0.000, 0.000, 0.000):   2980.29s
 Perturbation   76 (of  264): O     2 X at q=( 0.000, 0.000, 0.000):   3033.03s
 Perturbation   77 (of  264): O     2 Y at q=( 0.000, 0.000, 0.000):   3085.51s
 Perturbation   78 (of  264): O     2 Z at q=( 0.000, 0.000, 0.000):   3143.15s
 Perturbation   79 (of  264): O     3 X at q=( 0.000, 0.000, 0.000):   3198.25s
 Perturbation   80 (of  264): O     3 Y at q=( 0.000, 0.000, 0.000):   3251.09s
 Perturbation   81 (of  264): O     3 Z at q=( 0.000, 0.000, 0.000):   3306.29s
 Perturbation   82 (of  264): O     4 X at q=( 0.000, 0.000, 0.000):   3364.08s
 Perturbation   83 (of  264): O     4 Y at q=( 0.000, 0.000, 0.000):   3416.85s
 Perturbation   84 (of  264): O     4 Z at q=( 0.000, 0.000, 0.000):   3469.09s
 Perturbation   85 (of  264): O     5 X at q=( 0.000, 0.000, 0.000):   3524.11s
 Perturbation   86 (of  264): O     5 Y at q=( 0.000, 0.000, 0.000):   3579.17s
 Perturbation   87 (of  264): O     5 Z at q=( 0.000, 0.000, 0.000):   3631.52s
 Perturbation   88 (of  264): O     6 X at q=( 0.000, 0.000, 0.000):   3683.95s
 Perturbation   89 (of  264): O     6 Y at q=( 0.000, 0.000, 0.000):   3728.68s
 Perturbation   90 (of  264): O     6 Z at q=( 0.000, 0.000, 0.000):   3767.75s
 Perturbation   91 (of  264): O     7 X at q=( 0.000, 0.000, 0.000):   3811.97s
 Perturbation   92 (of  264): O     7 Y at q=( 0.000, 0.000, 0.000):   3867.18s
 Perturbation   93 (of  264): O     7 Z at q=( 0.000, 0.000, 0.000):   3924.82s
 Perturbation   94 (of  264): O     8 X at q=( 0.000, 0.000, 0.000):   3980.00s
 Perturbation   95 (of  264): O     8 Y at q=( 0.000, 0.000, 0.000):   4032.51s
 Perturbation   96 (of  264): O     8 Z at q=( 0.000, 0.000, 0.000):   4084.82s
 Perturbation   97 (of  264): O     9 X at q=( 0.000, 0.000, 0.000):   4137.26s
 Perturbation   98 (of  264): O     9 Y at q=( 0.000, 0.000, 0.000):   4181.36s
 Perturbation   99 (of  264): O     9 Z at q=( 0.000, 0.000, 0.000):   4217.92s
 Perturbation  100 (of  264): O    10 X at q=( 0.000, 0.000, 0.000):   4254.05s
 Perturbation  101 (of  264): O    10 Y at q=( 0.000, 0.000, 0.000):   4303.94s
 Perturbation  102 (of  264): O    10 Z at q=( 0.000, 0.000, 0.000):   4359.07s
 Perturbation  103 (of  264): O    11 X at q=( 0.000, 0.000, 0.000):   4417.09s
 Perturbation  104 (of  264): O    11 Y at q=( 0.000, 0.000, 0.000):   4464.19s
 Perturbation  105 (of  264): O    11 Z at q=( 0.000, 0.000, 0.000):   4503.04s
 Perturbation  106 (of  264): O    12 X at q=( 0.000, 0.000, 0.000):   4544.61s
 Perturbation  107 (of  264): O    12 Y at q=( 0.000, 0.000, 0.000):   4586.29s
 Perturbation  108 (of  264): O    12 Z at q=( 0.000, 0.000, 0.000):   4625.31s
 Perturbation  109 (of  264): O    13 X at q=( 0.000, 0.000, 0.000):   4666.91s
 Perturbation  110 (of  264): O    13 Y at q=( 0.000, 0.000, 0.000):   4716.64s
 Perturbation  111 (of  264): O    13 Z at q=( 0.000, 0.000, 0.000):   4771.71s
 Perturbation  112 (of  264): O    14 X at q=( 0.000, 0.000, 0.000):   4827.00s
 Perturbation  113 (of  264): O    14 Y at q=( 0.000, 0.000, 0.000):   4871.62s
 Perturbation  114 (of  264): O    14 Z at q=( 0.000, 0.000, 0.000):   4908.05s
 Perturbation  115 (of  264): O    15 X at q=( 0.000, 0.000, 0.000):   4944.39s
 Perturbation  116 (of  264): O    15 Y at q=( 0.000, 0.000, 0.000):   4994.14s
 Perturbation  117 (of  264): O    15 Z at q=( 0.000, 0.000, 0.000):   5049.25s
 Perturbation  118 (of  264): O    16 X at q=( 0.000, 0.000, 0.000):   5107.68s
 Perturbation  119 (of  264): O    16 Y at q=( 0.000, 0.000, 0.000):   5162.68s
 Perturbation  120 (of  264): O    16 Z at q=( 0.000, 0.000, 0.000):   5217.85s
 Perturbation  121 (of  264): O    17 X at q=( 0.000, 0.000, 0.000):   5275.99s
 Perturbation  122 (of  264): O    17 Y at q=( 0.000, 0.000, 0.000):   5323.06s
 Perturbation  123 (of  264): O    17 Z at q=( 0.000, 0.000, 0.000):   5364.69s
 Perturbation  124 (of  264): O    18 X at q=( 0.000, 0.000, 0.000):   5408.93s
 Perturbation  125 (of  264): O    18 Y at q=( 0.000, 0.000, 0.000):   5463.82s
 Perturbation  126 (of  264): O    18 Z at q=( 0.000, 0.000, 0.000):   5518.98s
 Perturbation  127 (of  264): O    19 X at q=( 0.000, 0.000, 0.000):   5571.29s
 Perturbation  128 (of  264): O    19 Y at q=( 0.000, 0.000, 0.000):   5623.53s
 Perturbation  129 (of  264): O    19 Z at q=( 0.000, 0.000, 0.000):   5672.94s
 Perturbation  130 (of  264): O    20 X at q=( 0.000, 0.000, 0.000):   5727.96s
 Perturbation  131 (of  264): O    20 Y at q=( 0.000, 0.000, 0.000):   5780.38s
 Perturbation  132 (of  264): O    20 Z at q=( 0.000, 0.000, 0.000):   5835.31s
 Perturbation  133 (of  264): O    21 X at q=( 0.000, 0.000, 0.000):   5890.15s
 Perturbation  134 (of  264): O    21 Y at q=( 0.000, 0.000, 0.000):   5942.18s
 Perturbation  135 (of  264): O    21 Z at q=( 0.000, 0.000, 0.000):   5997.30s
 Perturbation  136 (of  264): O    22 X at q=( 0.000, 0.000, 0.000):   6055.14s
 Perturbation  137 (of  264): O    22 Y at q=( 0.000, 0.000, 0.000):   6113.15s
 Perturbation  138 (of  264): O    22 Z at q=( 0.000, 0.000, 0.000):   6168.42s
 Perturbation  139 (of  264): O    23 X at q=( 0.000, 0.000, 0.000):   6220.94s
 Perturbation  140 (of  264): O    23 Y at q=( 0.000, 0.000, 0.000):   6276.05s
 Perturbation  141 (of  264): O    23 Z at q=( 0.000, 0.000, 0.000):   6330.94s
 Perturbation  142 (of  264): O    24 X at q=( 0.000, 0.000, 0.000):   6383.24s
 Perturbation  143 (of  264): O    24 Y at q=( 0.000, 0.000, 0.000):   6435.41s
 Perturbation  144 (of  264): O    24 Z at q=( 0.000, 0.000, 0.000):   6490.71s
 Perturbation  145 (of  264): O    25 X at q=( 0.000, 0.000, 0.000):   6548.27s
 Perturbation  146 (of  264): O    25 Y at q=( 0.000, 0.000, 0.000):   6600.86s
 Perturbation  147 (of  264): O    25 Z at q=( 0.000, 0.000, 0.000):   6655.86s
 Perturbation  148 (of  264): O    26 X at q=( 0.000, 0.000, 0.000):   6710.76s
 Perturbation  149 (of  264): O    26 Y at q=( 0.000, 0.000, 0.000):   6763.40s
 Perturbation  150 (of  264): O    26 Z at q=( 0.000, 0.000, 0.000):   6813.07s
 Perturbation  151 (of  264): O    27 X at q=( 0.000, 0.000, 0.000):   6868.16s
 Perturbation  152 (of  264): O    27 Y at q=( 0.000, 0.000, 0.000):   6923.18s
 Perturbation  153 (of  264): O    27 Z at q=( 0.000, 0.000, 0.000):   6978.36s
 Perturbation  154 (of  264): O    28 X at q=( 0.000, 0.000, 0.000):   7030.66s
 Perturbation  155 (of  264): O    28 Y at q=( 0.000, 0.000, 0.000):   7075.34s
 Perturbation  156 (of  264): O    28 Z at q=( 0.000, 0.000, 0.000):   7116.79s
 Perturbation  157 (of  264): O    29 X at q=( 0.000, 0.000, 0.000):   7160.99s
 Perturbation  158 (of  264): O    29 Y at q=( 0.000, 0.000, 0.000):   7216.60s
 Perturbation  159 (of  264): O    29 Z at q=( 0.000, 0.000, 0.000):   7271.72s
 Perturbation  160 (of  264): O    30 X at q=( 0.000, 0.000, 0.000):   7329.28s
 Perturbation  161 (of  264): O    30 Y at q=( 0.000, 0.000, 0.000):   7382.07s
 Perturbation  162 (of  264): O    30 Z at q=( 0.000, 0.000, 0.000):   7437.35s
 Perturbation  163 (of  264): O    31 X at q=( 0.000, 0.000, 0.000):   7495.22s
 Perturbation  164 (of  264): O    31 Y at q=( 0.000, 0.000, 0.000):   7539.46s
 Perturbation  165 (of  264): O    31 Z at q=( 0.000, 0.000, 0.000):   7575.76s
 Perturbation  166 (of  264): O    32 X at q=( 0.000, 0.000, 0.000):   7611.91s
 Perturbation  167 (of  264): O    32 Y at q=( 0.000, 0.000, 0.000):   7661.33s
 Perturbation  168 (of  264): O    32 Z at q=( 0.000, 0.000, 0.000):   7716.37s
 Perturbation  169 (of  264): O    33 X at q=( 0.000, 0.000, 0.000):   7771.60s
 Perturbation  170 (of  264): O    33 Y at q=( 0.000, 0.000, 0.000):   7818.69s
 Perturbation  171 (of  264): O    33 Z at q=( 0.000, 0.000, 0.000):   7857.47s
 Perturbation  172 (of  264): O    34 X at q=( 0.000, 0.000, 0.000):   7899.19s
 Perturbation  173 (of  264): O    34 Y at q=( 0.000, 0.000, 0.000):   7940.83s
 Perturbation  174 (of  264): O    34 Z at q=( 0.000, 0.000, 0.000):   7979.82s
 Perturbation  175 (of  264): O    35 X at q=( 0.000, 0.000, 0.000):   8021.39s
 Perturbation  176 (of  264): O    35 Y at q=( 0.000, 0.000, 0.000):   8071.20s
 Perturbation  177 (of  264): O    35 Z at q=( 0.000, 0.000, 0.000):   8127.00s
 Perturbation  178 (of  264): O    36 X at q=( 0.000, 0.000, 0.000):   8185.43s
 Perturbation  179 (of  264): O    36 Y at q=( 0.000, 0.000, 0.000):   8230.04s
 Perturbation  180 (of  264): O    36 Z at q=( 0.000, 0.000, 0.000):   8266.29s
 Perturbation  181 (of  264): O    37 X at q=( 0.000, 0.000, 0.000):   8302.53s
 Perturbation  182 (of  264): O    37 Y at q=( 0.000, 0.000, 0.000):   8352.03s
 Perturbation  183 (of  264): O    37 Z at q=( 0.000, 0.000, 0.000):   8404.45s
 Perturbation  184 (of  264): O    38 X at q=( 0.000, 0.000, 0.000):   8456.91s
 Perturbation  185 (of  264): O    38 Y at q=( 0.000, 0.000, 0.000):   8511.92s
 Perturbation  186 (of  264): O    38 Z at q=( 0.000, 0.000, 0.000):   8569.67s
 Perturbation  187 (of  264): O    39 X at q=( 0.000, 0.000, 0.000):   8624.99s
 Perturbation  188 (of  264): O    39 Y at q=( 0.000, 0.000, 0.000):   8671.87s
 Perturbation  189 (of  264): O    39 Z at q=( 0.000, 0.000, 0.000):   8710.54s
 Perturbation  190 (of  264): O    40 X at q=( 0.000, 0.000, 0.000):   8754.81s
 Perturbation  191 (of  264): O    40 Y at q=( 0.000, 0.000, 0.000):   8810.16s
 Perturbation  192 (of  264): O    40 Z at q=( 0.000, 0.000, 0.000):   8862.22s
 Perturbation  193 (of  264): O    41 X at q=( 0.000, 0.000, 0.000):   8914.29s
 Perturbation  194 (of  264): O    41 Y at q=( 0.000, 0.000, 0.000):   8966.48s
 Perturbation  195 (of  264): O    41 Z at q=( 0.000, 0.000, 0.000):   9018.61s
 Perturbation  196 (of  264): O    42 X at q=( 0.000, 0.000, 0.000):   9073.44s
 Perturbation  197 (of  264): O    42 Y at q=( 0.000, 0.000, 0.000):   9125.90s
 Perturbation  198 (of  264): O    42 Z at q=( 0.000, 0.000, 0.000):   9180.74s
 Perturbation  199 (of  264): O    43 X at q=( 0.000, 0.000, 0.000):   9238.48s
 Perturbation  200 (of  264): O    43 Y at q=( 0.000, 0.000, 0.000):   9290.92s
 Perturbation  201 (of  264): O    43 Z at q=( 0.000, 0.000, 0.000):   9349.02s
 Perturbation  202 (of  264): O    44 X at q=( 0.000, 0.000, 0.000):   9403.79s
 Perturbation  203 (of  264): O    44 Y at q=( 0.000, 0.000, 0.000):   9461.58s
 Perturbation  204 (of  264): O    44 Z at q=( 0.000, 0.000, 0.000):   9518.89s
 Perturbation  205 (of  264): Na    1 X at q=( 0.000, 0.000, 0.000):   9571.43s
 Perturbation  206 (of  264): Na    1 Y at q=( 0.000, 0.000, 0.000):   9613.06s
 Perturbation  207 (of  264): Na    1 Z at q=( 0.000, 0.000, 0.000):   9649.11s
 Perturbation  208 (of  264): Na    2 X at q=( 0.000, 0.000, 0.000):   9685.29s
 Perturbation  209 (of  264): Na    2 Y at q=( 0.000, 0.000, 0.000):   9718.76s
 Perturbation  210 (of  264): Na    2 Z at q=( 0.000, 0.000, 0.000):   9752.40s
 Perturbation  211 (of  264): Na    3 X at q=( 0.000, 0.000, 0.000):   9788.59s
 Perturbation  212 (of  264): Na    3 Y at q=( 0.000, 0.000, 0.000):   9822.66s
 Perturbation  213 (of  264): Na    3 Z at q=( 0.000, 0.000, 0.000):   9858.86s
 Perturbation  214 (of  264): Na    4 X at q=( 0.000, 0.000, 0.000):   9895.04s
 Perturbation  215 (of  264): Na    4 Y at q=( 0.000, 0.000, 0.000):   9930.92s
 Perturbation  216 (of  264): Na    4 Z at q=( 0.000, 0.000, 0.000):   9967.09s
 Perturbation  217 (of  264): Na    5 X at q=( 0.000, 0.000, 0.000):  10003.11s
 Perturbation  218 (of  264): Na    5 Y at q=( 0.000, 0.000, 0.000):  10039.35s
 Perturbation  219 (of  264): Na    5 Z at q=( 0.000, 0.000, 0.000):  10075.49s
 Perturbation  220 (of  264): Na    6 X at q=( 0.000, 0.000, 0.000):  10111.59s
 Perturbation  221 (of  264): Na    6 Y at q=( 0.000, 0.000, 0.000):  10147.97s
 Perturbation  222 (of  264): Na    6 Z at q=( 0.000, 0.000, 0.000):  10183.97s
 Perturbation  223 (of  264): Na    7 X at q=( 0.000, 0.000, 0.000):  10220.02s
 Perturbation  224 (of  264): Na    7 Y at q=( 0.000, 0.000, 0.000):  10256.37s
 Perturbation  225 (of  264): Na    7 Z at q=( 0.000, 0.000, 0.000):  10292.49s
 Perturbation  226 (of  264): Na    8 X at q=( 0.000, 0.000, 0.000):  10325.84s
 Perturbation  227 (of  264): Na    8 Y at q=( 0.000, 0.000, 0.000):  10361.86s
 Perturbation  228 (of  264): Na    8 Z at q=( 0.000, 0.000, 0.000):  10398.06s
 Perturbation  229 (of  264): Na    9 X at q=( 0.000, 0.000, 0.000):  10434.21s
 Perturbation  230 (of  264): Na    9 Y at q=( 0.000, 0.000, 0.000):  10470.14s
 Perturbation  231 (of  264): Na    9 Z at q=( 0.000, 0.000, 0.000):  10506.19s
 Perturbation  232 (of  264): Na   10 X at q=( 0.000, 0.000, 0.000):  10542.14s
 Perturbation  233 (of  264): Na   10 Y at q=( 0.000, 0.000, 0.000):  10575.45s
 Perturbation  234 (of  264): Na   10 Z at q=( 0.000, 0.000, 0.000):  10611.67s
 Perturbation  235 (of  264): Na   11 X at q=( 0.000, 0.000, 0.000):  10644.80s
 Perturbation  236 (of  264): Na   11 Y at q=( 0.000, 0.000, 0.000):  10678.20s
 Perturbation  237 (of  264): Na   11 Z at q=( 0.000, 0.000, 0.000):  10714.10s
 Perturbation  238 (of  264): Na   12 X at q=( 0.000, 0.000, 0.000):  10749.80s
 Perturbation  239 (of  264): Na   12 Y at q=( 0.000, 0.000, 0.000):  10785.75s
 Perturbation  240 (of  264): Na   12 Z at q=( 0.000, 0.000, 0.000):  10821.61s
 Perturbation  241 (of  264): Na   13 X at q=( 0.000, 0.000, 0.000):  10857.37s
 Perturbation  242 (of  264): Na   13 Y at q=( 0.000, 0.000, 0.000):  10893.37s
 Perturbation  243 (of  264): Na   13 Z at q=( 0.000, 0.000, 0.000):  10929.66s
 Perturbation  244 (of  264): Na   14 X at q=( 0.000, 0.000, 0.000):  10965.42s
 Perturbation  245 (of  264): Na   14 Y at q=( 0.000, 0.000, 0.000):  11001.38s
 Perturbation  246 (of  264): Na   14 Z at q=( 0.000, 0.000, 0.000):  11037.16s
 Perturbation  247 (of  264): Na   15 X at q=( 0.000, 0.000, 0.000):  11073.08s
 Perturbation  248 (of  264): Na   15 Y at q=( 0.000, 0.000, 0.000):  11109.12s
 Perturbation  249 (of  264): Na   15 Z at q=( 0.000, 0.000, 0.000):  11142.29s
 Perturbation  250 (of  264): Na   16 X at q=( 0.000, 0.000, 0.000):  11178.29s
 Perturbation  251 (of  264): Na   16 Y at q=( 0.000, 0.000, 0.000):  11214.17s
 Perturbation  252 (of  264): Na   16 Z at q=( 0.000, 0.000, 0.000):  11250.08s
 Perturbation  253 (of  264): Ti    1 X at q=( 0.000, 0.000, 0.000):  11285.99s
 Perturbation  254 (of  264): Ti    1 Y at q=( 0.000, 0.000, 0.000):  11345.85s
 Perturbation  255 (of  264): Ti    1 Z at q=( 0.000, 0.000, 0.000):  11403.02s
 Perturbation  256 (of  264): Ti    2 X at q=( 0.000, 0.000, 0.000):  11457.56s
 Perturbation  257 (of  264): Ti    2 Y at q=( 0.000, 0.000, 0.000):  11517.59s
 Perturbation  258 (of  264): Ti    2 Z at q=( 0.000, 0.000, 0.000):  11574.83s
 Perturbation  259 (of  264): Ti    3 X at q=( 0.000, 0.000, 0.000):  11629.33s
 Perturbation  260 (of  264): Ti    3 Y at q=( 0.000, 0.000, 0.000):  11689.62s
 Perturbation  261 (of  264): Ti    3 Z at q=( 0.000, 0.000, 0.000):  11746.91s
 Perturbation  262 (of  264): Ti    4 X at q=( 0.000, 0.000, 0.000):  11801.35s
 Perturbation  263 (of  264): Ti    4 Y at q=( 0.000, 0.000, 0.000):  11861.41s
 Perturbation  264 (of  264): Ti    4 Z at q=( 0.000, 0.000, 0.000):  11918.65s
 
 ==============================================================================
 +                           Vibrational Frequencies                          +
 +                           -----------------------                          +
 +                                                                            +
 + Performing frequency calculation at  1 wavevector  (q-pt )                 +
 + ========================================================================== +
 +                                                                            +
 + -------------------------------------------------------------------------- +
 +  q-pt=    1 (  0.000000  0.000000  0.000000)     1.0000000000              +
 + -------------------------------------------------------------------------- +
 +  Acoustic sum rule correction <  28.100379 cm-1 applied                    +
 +     N      Frequency irrep.    ir intensity active            raman active + 
 +                (cm-1)         ((D/A)**2/amu)                               + 
 +                                                                            +
 +     1      -0.044962   a          0.0000000  N                       N     + 
 +     2      -0.035940   a          0.0000000  N                       N     + 
 +     3      -0.024636   a          0.0000000  N                       N     + 
 +     4      53.471421   a          0.0017610  Y                       Y     + 
 +     5      61.352191   a          0.0027706  Y                       Y     + 
 +     6      63.316438   a          0.2955147  Y                       Y     + 
 +     7      67.633654   a          0.0015037  Y                       Y     + 
 +     8      71.419501   a          0.6269725  Y                       Y     + 
 +     9      72.455462   a          0.0081228  Y                       Y     + 
 +    10      73.441480   a          1.6624961  Y                       Y     + 
 +    11      81.808806   a          0.0023014  Y                       Y     + 
 +    12      83.421923   a          0.0027028  Y                       Y     + 
 +    13      85.441184   a          0.0033685  Y                       Y     + 
 +    14      86.684260   a          1.0813286  Y                       Y     + 
 +    15      89.456566   a          0.0076111  Y                       Y     + 
 +    16      90.617178   a          0.0147152  Y                       Y     + 
 +    17      93.147875   a          0.4477586  Y                       Y     + 
 +    18      95.489683   a          0.0160328  Y                       Y     + 
 +    19      96.666118   a          0.7953774  Y                       Y     + 
 +    20      96.696592   a          0.1419436  Y                       Y     + 
 +    21      97.116209   a          0.0068552  Y                       Y     + 
 +    22      99.783157   a          0.0003649  Y                       Y     + 
 +    23     100.610073   a          1.5677911  Y                       Y     + 
 +    24     103.049400   a          0.0031303  Y                       Y     + 
 +    25     104.921757   a          0.4717181  Y                       Y     + 
 +    26     105.655471   a          0.5546933  Y                       Y     + 
 +    27     108.543282   a          0.0023256  Y                       Y     + 
 +    28     110.351310   a          0.0331398  Y                       Y     + 
 +    29     115.083228   a          0.0429745  Y                       Y     + 
 +    30     117.197701   a         10.6252670  Y                       Y     + 
 +    31     121.583058   a          2.6714209  Y                       Y     + 
 +    32     123.116550   a          0.0615043  Y                       Y     + 
 +    33     123.555211   a          0.0511729  Y                       Y     + 
 +    34     126.352000   a          2.7986988  Y                       Y     + 
 +    35     127.204555   a          0.0064431  Y                       Y     + 
 +    36     132.338831   a          0.0049405  Y                       Y     + 
 +    37     133.512751   a          0.0077871  Y                       Y     + 
 +    38     134.522363   a          0.1502825  Y                       Y     + 
 +    39     137.765620   a          4.6988461  Y                       Y     + 
 +    40     139.997677   a          0.0014039  Y                       Y     + 
 +    41     142.330427   a          0.0005296  Y                       Y     + 
 +    42     142.867850   a          0.1571950  Y                       Y     + 
 +    43     143.332393   a          0.0560105  Y                       Y     + 
 +    44     146.014713   a          0.5271341  Y                       Y     + 
 +    45     151.273656   a          0.0016660  Y                       Y     + 
 +    46     152.077395   a          0.0446913  Y                       Y     + 
 +    47     153.468479   a          0.1238763  Y                       Y     + 
 +    48     156.039620   a          0.0006134  Y                       Y     + 
 +    49     156.441444   a          0.0075426  Y                       Y     + 
 +    50     157.203250   a          0.0134585  Y                       Y     + 
 +    51     158.312122   a          0.4242631  Y                       Y     + 
 +    52     160.128965   a          0.0025843  Y                       Y     + 
 +    53     160.817342   a          0.0019924  Y                       Y     + 
 +    54     163.015995   a          0.3585404  Y                       Y     + 
 +    55     164.660867   a          0.0110988  Y                       Y     + 
 +    56     165.595154   a          0.0043017  Y                       Y     + 
 +    57     167.376653   a          1.4548811  Y                       Y     + 
 +    58     169.195231   a          0.3369720  Y                       Y     + 
 +    59     170.625656   a          0.7633912  Y                       Y     + 
 +    60     171.756278   a          0.0020707  Y                       Y     + 
 +    61     173.857853   a          0.0149428  Y                       Y     + 
 +    62     175.701791   a          1.2828826  Y                       Y     + 
 +    63     179.739047   a          0.2471420  Y                       Y     + 
 +    64     180.463625   a          0.0193459  Y                       Y     + 
 +    65     181.766300   a          2.2235961  Y                       Y     + 
 +    66     183.752706   a          0.0005329  Y                       Y     + 
 +    67     184.652678   a          0.6544988  Y                       Y     + 
 +    68     186.572730   a          2.9895744  Y                       Y     + 
 +    69     188.980043   a          0.0012035  Y                       Y     + 
 +    70     189.768083   a          0.0010175  Y                       Y     + 
 +    71     192.124315   a          0.0006156  Y                       Y     + 
 +    72     192.515751   a          0.0211331  Y                       Y     + 
 +    73     194.242675   a          0.9723679  Y                       Y     + 
 +    74     196.311552   a          0.0040913  Y                       Y     + 
 +    75     198.344952   a          0.4022052  Y                       Y     + 
 +    76     198.635997   a          0.0011980  Y                       Y     + 
 +    77     201.696124   a          0.2831986  Y                       Y     + 
 +    78     201.811191   a          0.0223887  Y                       Y     + 
 +    79     207.022554   a          0.5993796  Y                       Y     + 
 +    80     207.219717   a          1.0617186  Y                       Y     + 
 +    81     209.488489   a          4.2543608  Y                       Y     + 
 +    82     210.748723   a          0.0039721  Y                       Y     + 
 +    83     211.604807   a          0.0341592  Y                       Y     + 
 +    84     215.011375   a         13.5494525  Y                       Y     + 
 +    85     216.962959   a          0.0022742  Y                       Y     + 
 +    86     217.789873   a          0.0487963  Y                       Y     + 
 +    87     218.622203   a          2.9635611  Y                       Y     + 
 +    88     220.210323   a          0.0171434  Y                       Y     + 
 +    89     220.455617   a          0.0100202  Y                       Y     + 
 +    90     221.455319   a          0.0674245  Y                       Y     + 
 +    91     221.612779   a          0.0772551  Y                       Y     + 
 +    92     224.166356   a          5.5184310  Y                       Y     + 
 +    93     227.100748   a          0.0154291  Y                       Y     + 
 +    94     227.838786   a          2.5687023  Y                       Y     + 
 +    95     232.616324   a          0.0211709  Y                       Y     + 
 +    96     235.182929   a         10.8318825  Y                       Y     + 
 +    97     237.886828   a          0.0529983  Y                       Y     + 
 +    98     238.598738   a          3.6766028  Y                       Y     + 
 +    99     240.488538   a          3.3750426  Y                       Y     + 
 +   100     242.331881   a          0.4417692  Y                       Y     + 
 +   101     242.494030   a          0.0571776  Y                       Y     + 
 +   102     243.286188   a          0.0135580  Y                       Y     + 
 +   103     245.336609   a          9.2343142  Y                       Y     + 
 +   104     245.573162   a          1.2692876  Y                       Y     + 
 +   105     251.961597   a          0.0317602  Y                       Y     + 
 +   106     252.058871   a          2.0194521  Y                       Y     + 
 +   107     254.390814   a          0.0070998  Y                       Y     + 
 +   108     256.743823   a          0.2989689  Y                       Y     + 
 +   109     258.436162   a          2.2546507  Y                       Y     + 
 +   110     260.645091   a          0.0001310  Y                       Y     + 
 +   111     266.269052   a          1.8381629  Y                       Y     + 
 +   112     267.322523   a          0.6112235  Y                       Y     + 
 +   113     268.829364   a          1.0294062  Y                       Y     + 
 +   114     270.879619   a          0.0016651  Y                       Y     + 
 +   115     273.701268   a          0.0001208  Y                       Y     + 
 +   116     276.184925   a          0.0004396  Y                       Y     + 
 +   117     279.082037   a          0.9189913  Y                       Y     + 
 +   118     281.140980   a          0.0094534  Y                       Y     + 
 +   119     283.460947   a          0.8367522  Y                       Y     + 
 +   120     285.243053   a          0.0085896  Y                       Y     + 
 +   121     289.091205   a          0.8328699  Y                       Y     + 
 +   122     291.308680   a          0.0018191  Y                       Y     + 
 +   123     297.231708   a          0.2174001  Y                       Y     + 
 +   124     300.541955   a          0.0816117  Y                       Y     + 
 +   125     300.897504   a          8.9439296  Y                       Y     + 
 +   126     303.807973   a          0.0629675  Y                       Y     + 
 +   127     304.232133   a          0.0270988  Y                       Y     + 
 +   128     304.703812   a          5.8613300  Y                       Y     + 
 +   129     312.619252   a          0.4471807  Y                       Y     + 
 +   130     313.604240   a          0.9593952  Y                       Y     + 
 +   131     313.881751   a          0.0737224  Y                       Y     + 
 +   132     314.462080   a          0.1272070  Y                       Y     + 
 +   133     324.649469   a          0.0117749  Y                       Y     + 
 +   134     327.017403   a          4.9551831  Y                       Y     + 
 +   135     334.865529   a          0.0058678  Y                       Y     + 
 +   136     335.505752   a          0.0006769  Y                       Y     + 
 +   137     337.525581   a          1.5573197  Y                       Y     + 
 +   138     337.879661   a          1.3615036  Y                       Y     + 
 +   139     338.058113   a          1.0207891  Y                       Y     + 
 +   140     341.431177   a          0.6317549  Y                       Y     + 
 +   141     341.504525   a          2.1408266  Y                       Y     + 
 +   142     344.336636   a          0.4604815  Y                       Y     + 
 +   143     351.274494   a          0.0000477  Y                       Y     + 
 +   144     355.893067   a          0.3711988  Y                       Y     + 
 +   145     356.315709   a          0.0081643  Y                       Y     + 
 +   146     357.598550   a          0.0012378  Y                       Y     + 
 +   147     358.481937   a          0.0099729  Y                       Y     + 
 +   148     362.994862   a          5.0713733  Y                       Y     + 
 +   149     363.047954   a          1.4278394  Y                       Y     + 
 +   150     363.918373   a          0.0241084  Y                       Y     + 
 +   151     377.216837   a          0.4482123  Y                       Y     + 
 +   152     379.305960   a          0.0000305  Y                       Y     + 
 +   153     387.702971   a          0.0004545  Y                       Y     + 
 +   154     390.299858   a          0.0229780  Y                       Y     + 
 +   155     391.190154   a          2.2119080  Y                       Y     + 
 +   156     392.303790   a          1.4550507  Y                       Y     + 
 +   157     435.187956   a          0.1228269  Y                       Y     + 
 +   158     435.595278   a          0.0030688  Y                       Y     + 
 +   159     448.289753   a          0.0085939  Y                       Y     + 
 +   160     450.430895   a          6.5505816  Y                       Y     + 
 +   161     463.380197   a         10.8087141  Y                       Y     + 
 +   162     464.039268   a          0.0071937  Y                       Y     + 
 +   163     465.412182   a          0.2836599  Y                       Y     + 
 +   164     466.771712   a          0.0048514  Y                       Y     + 
 +   165     480.827754   a         35.4993966  Y                       Y     + 
 +   166     481.618632   a          0.8732544  Y                       Y     + 
 +   167     482.156576   a          4.9238823  Y                       Y     + 
 +   168     485.627937   a          0.0014014  Y                       Y     + 
 +   169     493.106095   a          0.0019518  Y                       Y     + 
 +   170     493.925175   a          3.3694197  Y                       Y     + 
 +   171     500.346461   a         30.5320105  Y                       Y     + 
 +   172     500.450316   a          2.3326212  Y                       Y     + 
 +   173     503.792305   a         34.9101555  Y                       Y     + 
 +   174     507.582891   a          0.0000069  Y                       Y     + 
 +   175     516.496213   a         12.6078375  Y                       Y     + 
 +   176     520.439324   a          0.0305489  Y                       Y     + 
 +   177     520.894910   a         30.1527112  Y                       Y     + 
 +   178     540.595443   a          0.0006631  Y                       Y     + 
 +   179     544.446950   a          0.9279657  Y                       Y     + 
 +   180     548.935160   a          0.0003151  Y                       Y     + 
 +   181     567.261484   a          1.0169077  Y                       Y     + 
 +   182     570.672639   a          0.0084087  Y                       Y     + 
 +   183     571.092617   a          1.1374223  Y                       Y     + 
 +   184     571.464795   a          8.9273616  Y                       Y     + 
 +   185     663.697216   a          1.4044381  Y                       Y     + 
 +   186     664.274737   a         17.4047585  Y                       Y     + 
 +   187     709.264726   a          1.6043384  Y                       Y     + 
 +   188     710.957848   a          0.0148378  Y                       Y     + 
 +   189     750.979785   a          0.4012872  Y                       Y     + 
 +   190     751.897711   a          1.8395727  Y                       Y     + 
 +   191     753.349797   a          0.0042041  Y                       Y     + 
 +   192     753.724647   a          0.0046510  Y                       Y     + 
 +   193     810.453687   a          0.0000357  Y                       Y     + 
 +   194     813.468013   a          2.4393240  Y                       Y     + 
 +   195     815.992999   a          0.1384729  Y                       Y     + 
 +   196     816.158867   a          0.0034569  Y                       Y     + 
 +   197     819.413541   a          3.7043483  Y                       Y     + 
 +   198     820.264215   a          0.0031428  Y                       Y     + 
 +   199     820.699487   a          0.0011250  Y                       Y     + 
 +   200     821.778474   a          2.5288535  Y                       Y     + 
 +   201     826.181308   a          9.6352311  Y                       Y     + 
 +   202     826.388280   a         13.1924645  Y                       Y     + 
 +   203     827.192000   a          0.0013471  Y                       Y     + 
 +   204     827.669185   a          0.0017075  Y                       Y     + 
 +   205     829.310728   a         10.1134463  Y                       Y     + 
 +   206     829.479486   a          0.4945442  Y                       Y     + 
 +   207     833.209782   a          0.0002140  Y                       Y     + 
 +   208     836.759223   a          0.0728175  Y                       Y     + 
 +   209     843.332159   a          4.2363872  Y                       Y     + 
 +   210     843.641999   a          0.1899472  Y                       Y     + 
 +   211     844.618817   a          4.5073310  Y                       Y     + 
 +   212     846.408802   a          0.0001894  Y                       Y     + 
 +   213     847.026940   a          0.0237801  Y                       Y     + 
 +   214     848.738894   a          5.7228370  Y                       Y     + 
 +   215     853.270914   a          0.0003950  Y                       Y     + 
 +   216     854.180913   a          0.0002379  Y                       Y     + 
 +   217     854.933834   a          0.1894716  Y                       Y     + 
 +   218     855.256099   a          3.6458317  Y                       Y     + 
 +   219     867.344891   a          0.0000733  Y                       Y     + 
 +   220     870.039099   a          0.0000646  Y                       Y     + 
 +   221     883.048359   a          5.3832764  Y                       Y     + 
 +   222     883.823224   a          0.0049211  Y                       Y     + 
 +   223     892.731504   a          0.3611271  Y                       Y     + 
 +   224     892.857794   a          3.1241739  Y                       Y     + 
 +   225     967.406132   a          1.1084581  Y                       Y     + 
 +   226     975.164904   a          0.0184057  Y                       Y     + 
 +   227     977.107536   a          8.1420654  Y                       Y     + 
 +   228     987.402390   a          0.0000415  Y                       Y     + 
 +   229    1632.434519   a          0.0666558  Y                       Y     + 
 +   230    1633.296902   a         14.7121361  Y                       Y     + 
 +   231    1642.469737   a          0.0002447  Y                       Y     + 
 +   232    1642.478608   a          0.0003993  Y                       Y     + 
 +   233    1671.761097   a          0.0000088  Y                       Y     + 
 +   234    1672.796681   a          0.0000264  Y                       Y     + 
 +   235    1675.789542   a          0.2710663  Y                       Y     + 
 +   236    1678.404544   a          0.9180423  Y                       Y     + 
 +   237    1700.183359   a          0.0680534  Y                       Y     + 
 +   238    1700.445145   a          0.0000092  Y                       Y     + 
 +   239    1702.136879   a          0.0000022  Y                       Y     + 
 +   240    1704.611817   a          6.4068643  Y                       Y     + 
 +   241    3043.926325   a          0.0011672  Y                       Y     + 
 +   242    3046.550712   a        279.3377204  Y                       Y     + 
 +   243    3053.561253   a          0.0036760  Y                       Y     + 
 +   244    3054.796038   a         89.8707838  Y                       Y     + 
 +   245    3058.233219   a          0.0005041  Y                       Y     + 
 +   246    3064.835429   a          0.0000295  Y                       Y     + 
 +   247    3069.179764   a          4.2285581  Y                       Y     + 
 +   248    3071.183044   a         10.1908968  Y                       Y     + 
 +   249    3083.543858   a        279.1409306  Y                       Y     + 
 +   250    3083.719125   a          3.6003289  Y                       Y     + 
 +   251    3115.916660   a          0.0253194  Y                       Y     + 
 +   252    3117.392358   a          0.0000228  Y                       Y     + 
 +   253    3181.458419   a          0.0011979  Y                       Y     + 
 +   254    3184.332075   a         64.3392946  Y                       Y     + 
 +   255    3191.638896   a          0.0001338  Y                       Y     + 
 +   256    3197.526893   a         26.7527969  Y                       Y     + 
 +   257    3292.631249   a          0.0016558  Y                       Y     + 
 +   258    3295.036865   a        130.6813558  Y                       Y     + 
 +   259    3297.978891   a          1.3602839  Y                       Y     + 
 +   260    3306.834115   a          0.0000052  Y                       Y     + 
 +   261    3679.419979   a          0.0009228  Y                       Y     + 
 +   262    3679.789599   a          0.0044535  Y                       Y     + 
 +   263    3680.014519   a          6.4580680  Y                       Y     + 
 +   264    3681.162032   a         24.5347889  Y                       Y     + 
 + .......................................................................... +
 +        Character table from group theory analysis of eigenvectors          +
 +                           Point Group =   1, C1                            +
 + .......................................................................... +
 +  Rep  Mul |    E                                                           +
 +           | ----                                                           +
 + a A   264 |    1                                                           +
 + -------------------------------------------------------------------------- +
 +  q-pt=    1 (  0.000000  0.000000  0.000000)     1.0000000000              +
 +  q->0 along (  0.000000  0.000000  1.000000)                               +
 + -------------------------------------------------------------------------- +
 +  Acoustic sum rule correction <  28.100379 cm-1 applied                    +
 +     N      Frequency irrep.    ir intensity active            raman active + 
[...]
              O 5  -- Ti 1                   0.19        2.03295
              O 25 -- Ti 2                   0.26        2.03688
              O 20 -- Ti 3                   0.26        2.03688
              O 3  -- Ti 4                   0.26        2.03688
              O 42 -- Ti 1                   0.26        2.03688
              O 24 -- Ti 2                   0.22        2.06757
              O 21 -- Ti 3                   0.22        2.06757
              O 2  -- Ti 4                   0.22        2.06757
              O 43 -- Ti 1                   0.22        2.06757
              H 3  -- H 5                   -0.01        2.23957
              H 20 -- H 22                  -0.01        2.23957
              H 15 -- H 17                  -0.01        2.23957
              H 8  -- H 10                  -0.01        2.23957
              H 1  -- H 3                   -0.02        2.24406
              H 22 -- H 24                  -0.02        2.24406
              H 13 -- H 15                  -0.02        2.24406
              H 10 -- H 12                  -0.02        2.24406
              H 14 -- O 23                   0.01        2.28714
              H 23 -- O 44                   0.01        2.28714
              H 11 -- O 22                   0.01        2.28714
              H 2  -- O 1                    0.01        2.28714
              O 38 -- Na 12                  0.07        2.32495
              O 16 -- Na 4                   0.07        2.32495
              O 29 -- Na 13                  0.07        2.32495
              O 7  -- Na 5                   0.07        2.32495
              O 27 -- Na 9                   0.18        2.38141
              O 18 -- Na 8                   0.18        2.38141
              O 5  -- Na 1                   0.18        2.38141
              O 40 -- Na 16                  0.18        2.38141
              O 42 -- Na 13                 -0.02        2.38828
              O 3  -- Na 4                  -0.02        2.38828
              O 25 -- Na 12                 -0.02        2.38828
              O 20 -- Na 5                  -0.02        2.38828
              O 21 -- Na 5                   0.02        2.39471
              O 2  -- Na 4                   0.02        2.39471
              O 43 -- Na 13                  0.02        2.39471
              O 24 -- Na 12                  0.02        2.39471
              O 3  -- Na 16                 -0.02        2.40835
              O 42 -- Na 1                  -0.02        2.40835
              O 20 -- Na 9                  -0.02        2.40835
              O 25 -- Na 8                  -0.02        2.40835
              O 22 -- Na 7                   0.06        2.40902
              O 23 -- Na 10                  0.06        2.40902
              O 1  -- Na 2                   0.06        2.40902
              O 44 -- Na 15                  0.06        2.40902
              O 35 -- Na 12                  0.02        2.41086
              O 32 -- Na 13                  0.02        2.41086
              O 13 -- Na 4                   0.02        2.41086
              O 10 -- Na 5                   0.02        2.41086
              O 42 -- Na 14                  0.11        2.42050
              O 3  -- Na 3                   0.11        2.42050
              O 20 -- Na 6                   0.11        2.42050
              O 25 -- Na 11                  0.11        2.42050
              O 41 -- Na 13                 -0.02        2.42593
              O 4  -- Na 4                  -0.02        2.42593
              O 19 -- Na 5                  -0.02        2.42593
              O 26 -- Na 12                 -0.02        2.42593
              O 36 -- Na 10                  0.06        2.43076
              O 31 -- Na 15                  0.06        2.43076
              O 9  -- Na 7                   0.06        2.43076
              O 14 -- Na 2                   0.06        2.43076
              O 31 -- Na 11                  0.05        2.43404
              O 9  -- Na 3                   0.05        2.43404
              O 14 -- Na 6                   0.05        2.43404
              O 36 -- Na 14                  0.05        2.43404
              O 39 -- Na 15                  0.06        2.43486
              O 28 -- Na 10                  0.06        2.43486
              O 6  -- Na 2                   0.06        2.43486
              O 17 -- Na 7                   0.06        2.43486
              O 37 -- Na 15                  0.16        2.43498
              O 8  -- Na 2                   0.16        2.43498
              O 30 -- Na 10                  0.16        2.43498
              O 15 -- Na 7                   0.16        2.43498
              H 19 -- Na 13                 -0.15        2.43860
              H 7  -- Na 5                  -0.15        2.43860
              H 6  -- Na 4                  -0.15        2.43860
              H 18 -- Na 12                 -0.15        2.43860
              O 32 -- Na 14                  0.14        2.43964
              O 13 -- Na 3                   0.14        2.43964
              O 10 -- Na 6                   0.14        2.43964
              O 35 -- Na 11                  0.14        2.43964
              O 7  -- Na 1                   0.10        2.45667
              O 38 -- Na 16                  0.10        2.45667
              O 29 -- Na 9                   0.10        2.45667
              O 16 -- Na 8                   0.10        2.45667
              O 12 -- Na 5                   0.09        2.47366
              O 11 -- Na 4                   0.09        2.47366
              O 33 -- Na 12                  0.09        2.47366
              O 34 -- Na 13                  0.09        2.47366
              O 19 -- Na 9                   0.03        2.47521
              O 26 -- Na 8                   0.03        2.47521
              O 4  -- Na 16                  0.03        2.47521
              O 41 -- Na 1                   0.03        2.47521
              H 24 -- O 43                  -0.03        2.47717
              H 13 -- O 24                  -0.03        2.47717
              H 12 -- O 21                  -0.03        2.47717
              H 1  -- O 2                   -0.03        2.47717
              O 38 -- Na 11                  0.06        2.51048
              O 29 -- Na 14                  0.06        2.51048
              O 7  -- Na 6                   0.06        2.51048
              O 16 -- Na 3                   0.06        2.51048
              O 24 -- Na 7                  -0.04        2.51579
              O 21 -- Na 10                 -0.04        2.51579
              O 43 -- Na 2                  -0.04        2.51579
              O 2  -- Na 15                 -0.04        2.51579
              O 12 -- Na 6                   0.09        2.51889
              O 34 -- Na 14                  0.09        2.51889
              O 11 -- Na 3                   0.09        2.51889
              O 33 -- Na 11                  0.09        2.51889
              O 21 -- Na 6                   0.15        2.54735
              O 2  -- Na 3                   0.15        2.54735
              O 43 -- Na 14                  0.15        2.54735
              O 24 -- Na 11                  0.15        2.54735
              H 21 -- Na 12                 -0.09        2.55438
              H 16 -- Na 13                 -0.09        2.55438
              H 9  -- Na 4                  -0.09        2.55438
              H 4  -- Na 5                  -0.09        2.55438
              O 19 -- Na 8                   0.08        2.59342
              O 26 -- Na 9                   0.08        2.59342
              O 4  -- Na 1                   0.08        2.59342
              O 41 -- Na 16                  0.08        2.59342
              H 12 -- H 14                  -0.00        2.59927
              H 11 -- H 13                  -0.00        2.59927
              H 1  -- H 23                  -0.00        2.59927
              H 2  -- H 24                  -0.00        2.59927
              H 21 -- O 35                  -0.02        2.60357
              H 16 -- O 32                  -0.02        2.60357
              H 4  -- O 10                  -0.02        2.60357
              H 9  -- O 13                  -0.02        2.60357
              H 19 -- O 42                  -0.01        2.67474
              H 6  -- O 3                   -0.01        2.67474
              H 18 -- O 25                  -0.01        2.67474
              H 7  -- O 20                  -0.01        2.67474
              H 16 -- Na 8                  -0.15        2.69053
              H 9  -- Na 9                  -0.15        2.69053
              H 21 -- Na 1                  -0.15        2.69053
              H 4  -- Na 16                 -0.15        2.69053
              O 13 -- Na 7                   0.01        2.69079
              O 10 -- Na 2                   0.01        2.69079
              O 35 -- Na 15                  0.01        2.69079
              O 32 -- Na 10                  0.01        2.69079
              O 36 -- O 39                  -0.10        2.70563
              O 6  -- O 9                   -0.10        2.70563
              O 28 -- O 31                  -0.10        2.70563
              O 14 -- O 17                  -0.10        2.70563
              O 12 -- O 18                  -0.09        2.71168
              O 5  -- O 11                  -0.09        2.71168
              O 27 -- O 33                  -0.09        2.71168
              O 34 -- O 40                  -0.09        2.71168
              O 17 -- O 23                  -0.08        2.72544
              O 1  -- O 39                  -0.08        2.72544
              O 6  -- O 44                  -0.08        2.72544
              O 22 -- O 28                  -0.08        2.72544
              H 17 -- O 38                  -0.02        2.73204
              H 5  -- O 16                  -0.02        2.73204
              H 20 -- O 29                  -0.02        2.73204
              H 8  -- O 7                   -0.02        2.73204
              O 15 -- O 22                  -0.02        2.76275
              O 1  -- O 8                   -0.02        2.76275
              O 37 -- O 44                  -0.02        2.76275
              O 23 -- O 30                  -0.02        2.76275
              O 28 -- O 37                  -0.07        2.78082
              O 30 -- O 39                  -0.07        2.78082
              O 8  -- O 17                  -0.07        2.78082
              O 6  -- O 15                  -0.07        2.78082
              O 20 -- O 29                  -0.02        2.79298
              O 16 -- O 25                  -0.02        2.79298
              O 3  -- O 38                  -0.02        2.79298
              O 7  -- O 42                  -0.02        2.79298
              O 18 -- O 26                  -0.02        2.79334
              O 19 -- O 27                  -0.02        2.79334
              O 4  -- O 40                  -0.02        2.79334
              O 5  -- O 41                  -0.02        2.79334
              H 18 -- O 29                  -0.00        2.82415
              H 6  -- O 7                   -0.00        2.82415
              H 7  -- O 16                  -0.00        2.82415
              H 19 -- O 38                  -0.00        2.82415
              O 33 -- O 41                  -0.06        2.82801
              O 26 -- O 34                  -0.06        2.82801
              O 11 -- O 19                  -0.06        2.82801
              O 4  -- O 12                  -0.06        2.82801
              O 40 -- Na 12                 -0.06        2.83043
              O 27 -- Na 13                 -0.06        2.83043
              O 18 -- Na 4                  -0.06        2.83043
              O 5  -- Na 5                  -0.06        2.83043
              O 27 -- Na 8                   0.03        2.84670
              O 18 -- Na 9                   0.03        2.84670
              O 40 -- Na 1                   0.03        2.84670
              O 5  -- Na 16                  0.03        2.84670
              O 33 -- Na 13                 -0.20        2.85490
              O 12 -- Na 4                  -0.20        2.85490
              O 11 -- Na 5                  -0.20        2.85490
              O 34 -- Na 12                 -0.20        2.85490
              O 13 -- O 24                  -0.02        2.86164
              O 21 -- O 32                  -0.02        2.86164
              O 2  -- O 35                  -0.02        2.86164
              O 10 -- O 43                  -0.02        2.86164
              O 2  -- O 40                  -0.02        2.86336
              O 5  -- O 43                  -0.02        2.86336
              O 21 -- O 27                  -0.02        2.86336
              O 18 -- O 24                  -0.02        2.86336
              O 35 -- O 38                  -0.03        2.86715
              O 13 -- O 16                  -0.03        2.86715
              O 29 -- O 32                  -0.03        2.86715
              O 7  -- O 10                  -0.03        2.86715
              O 15 -- O 25                  -0.02        2.87315
              O 20 -- O 30                  -0.02        2.87315
              O 8  -- O 42                  -0.02        2.87315
              O 3  -- O 37                  -0.02        2.87315
              H 6  -- Na 5                  -0.12        2.87667
              H 7  -- Na 4                  -0.12        2.87667
              H 19 -- Na 12                 -0.12        2.87667
              H 18 -- Na 13                 -0.12        2.87667
              H 3  -- Na 3                  -0.13        2.88795
              H 10 -- Na 6                  -0.13        2.88795
              H 22 -- Na 14                 -0.13        2.88795
              H 15 -- Na 11                 -0.13        2.88795
              O 35 -- O 37                  -0.02        2.89582
              O 13 -- O 15                  -0.02        2.89582
              O 8  -- O 10                  -0.02        2.89582
              O 30 -- O 32                  -0.02        2.89582
              H 3  -- Na 7                  -0.06        2.90433
              H 15 -- Na 15                 -0.06        2.90433
              H 10 -- Na 2                  -0.06        2.90433
              H 22 -- Na 10                 -0.06        2.90433
              H 17 -- Na 12                 -0.09        2.90493
              H 8  -- Na 5                  -0.09        2.90493
              H 20 -- Na 13                 -0.09        2.90493
              H 5  -- Na 4                  -0.09        2.90493
              O 16 -- O 26                  -0.02        2.91229
              O 19 -- O 29                  -0.02        2.91229
              O 4  -- O 38                  -0.02        2.91229
              O 7  -- O 41                  -0.02        2.91229
              H 17 -- Na 10                 -0.15        2.91456
              H 20 -- Na 15                 -0.15        2.91456
              H 5  -- Na 2                  -0.15        2.91456
              H 8  -- Na 7                  -0.15        2.91456
              H 3  -- O 13                  -0.00        2.92031
              H 10 -- O 10                  -0.00        2.92031
              H 22 -- O 32                  -0.00        2.92031
              H 15 -- O 35                  -0.00        2.92031
              O 22 -- O 25                  -0.02        2.92055
              O 20 -- O 23                  -0.02        2.92055
              O 1  -- O 42                  -0.02        2.92055
              O 3  -- O 44                  -0.02        2.92055
              H 2  -- O 8                   -0.00        2.92200
              H 23 -- O 37                  -0.00        2.92200
              H 14 -- O 30                  -0.00        2.92200
              H 11 -- O 15                  -0.00        2.92200
              H 17 -- O 35                  -0.00        2.92295
              H 5  -- O 13                  -0.00        2.92295
              H 20 -- O 32                  -0.00        2.92295
              H 8  -- O 10                  -0.00        2.92295
              O 2  -- Na 16                 -0.01        2.92993
              O 43 -- Na 1                  -0.01        2.92993
              O 21 -- Na 9                  -0.01        2.92993
              O 24 -- Na 8                  -0.01        2.92993
              O 35 -- O 44                  -0.02        2.93829
              O 13 -- O 22                  -0.02        2.93829
              O 1  -- O 10                  -0.02        2.93829
              O 23 -- O 32                  -0.02        2.93829
              O 11 -- O 16                  -0.02        2.94632
              O 29 -- O 34                  -0.02        2.94632
              O 33 -- O 38                  -0.02        2.94632
              O 7  -- O 12                  -0.02        2.94632
              H 14 -- H 20                   0.00        2.97534
              H 5  -- H 11                   0.00        2.97534
              H 17 -- H 23                   0.00        2.97534
              H 2  -- H 8                    0.00        2.97534
              H 9  -- Na 5                  -0.15        2.97712
              H 4  -- Na 4                  -0.15        2.97712
              H 16 -- Na 12                 -0.15        2.97712
              H 21 -- Na 13                 -0.15        2.97712
              O 9  -- O 13                  -0.01        2.98220
              O 32 -- O 36                  -0.01        2.98220
              O 31 -- O 35                  -0.01        2.98220
              O 10 -- O 14                  -0.01        2.98220
              H 23 -- Na 10                 -0.11        2.98788
              H 2  -- Na 7                  -0.11        2.98788
              H 11 -- Na 2                  -0.11        2.98788
              H 14 -- Na 15                 -0.11        2.98788
              O 19 -- O 21                  -0.02        2.99322
              O 2  -- O 4                   -0.02        2.99322
              O 24 -- O 26                  -0.02        2.99322
              O 41 -- O 43                  -0.02        2.99322
              O 12 -- Na 9                  -0.05        2.99564
              O 33 -- Na 8                  -0.05        2.99564
              O 34 -- Na 1                  -0.05        2.99564
              O 11 -- Na 16                 -0.05        2.99564
              O 38 -- O 40                  -0.02        2.99816
              O 16 -- O 18                  -0.02        2.99816
              O 27 -- O 29                  -0.02        2.99816
              O 5  -- O 7                   -0.02        2.99816
              H 12 -- Na 5                  -0.10        2.99909
              H 24 -- Na 13                 -0.10        2.99909
              H 13 -- Na 12                 -0.10        2.99909
              H 1  -- Na 4                  -0.10        2.99909
======================================================================
 

Writing analysis data to Na4TiO8_w_water_thermo.castep_bin

Writing model to Na4TiO8_w_water_thermo.check
 
 A BibTeX formatted list of references used in this run has been written to 
 Na4TiO8_w_water_thermo.bib
 
Initialisation time =     11.66 s
Calculation time    =  11992.41 s
Finalisation time   =      0.50 s
Total time          =  12004.57 s
Peak Memory Use     = 5633672 kB
  
Overall parallel efficiency rating: Poor (47%)                                  
  
Data was distributed by:-
G-vector (40-way); efficiency rating: Poor (48%)                                
